  48  48   1   0
  0.1208435E+02  0.5367720E-09  0.5535620E-09  0.1952129E-08  0.5000000E-15
  1.000000000000000E-004
  CAR 
 "CRO_a"                                 
      8.00000000      2.00000000 5001      4.62856708      1.00000000
      2.000  0.5682E+02  0.2950E+03
      2.001  0.5608E+02  0.2950E+03
      2.002  0.5502E+02  0.2951E+03
      2.004  0.5379E+02  0.2952E+03
      2.005  0.5170E+02  0.2952E+03
      2.006  0.5022E+02  0.2953E+03
      2.007  0.4877E+02  0.2954E+03
      2.008  0.4743E+02  0.2954E+03
      2.010  0.4607E+02  0.2955E+03
      2.011  0.4478E+02  0.2955E+03
      2.012  0.4364E+02  0.2956E+03
      2.013  0.4259E+02  0.2956E+03
      2.014  0.4172E+02  0.2957E+03
      2.016  0.4113E+02  0.2957E+03
      2.017  0.4086E+02  0.2958E+03
      2.018  0.4086E+02  0.2958E+03
      2.019  0.4129E+02  0.2959E+03
      2.020  0.4212E+02  0.2959E+03
      2.022  0.4288E+02  0.2960E+03
      2.023  0.4349E+02  0.2960E+03
      2.024  0.4570E+02  0.2961E+03
      2.025  0.4685E+02  0.2961E+03
      2.026  0.4746E+02  0.2962E+03
      2.028  0.4699E+02  0.2963E+03
      2.029  0.4753E+02  0.2963E+03
      2.030  0.4816E+02  0.2964E+03
      2.031  0.4894E+02  0.2964E+03
      2.032  0.5016E+02  0.2965E+03
      2.034  0.5022E+02  0.2965E+03
      2.035  0.5029E+02  0.2966E+03
      2.036  0.5043E+02  0.2967E+03
      2.037  0.5020E+02  0.2967E+03
      2.038  0.4967E+02  0.2968E+03
      2.040  0.4933E+02  0.2968E+03
      2.041  0.4895E+02  0.2969E+03
      2.042  0.4836E+02  0.2970E+03
      2.043  0.4792E+02  0.2970E+03
      2.044  0.4707E+02  0.2971E+03
      2.046  0.4636E+02  0.2971E+03
      2.047  0.4565E+02  0.2972E+03
      2.048  0.4461E+02  0.2972E+03
      2.049  0.4358E+02  0.2973E+03
      2.050  0.4279E+02  0.2974E+03
      2.052  0.4210E+02  0.2974E+03
      2.053  0.4161E+02  0.2975E+03
      2.054  0.4109E+02  0.2975E+03
      2.055  0.4059E+02  0.2976E+03
      2.056  0.4030E+02  0.2976E+03
      2.058  0.4020E+02  0.2976E+03
      2.059  0.4013E+02  0.2977E+03
      2.060  0.4056E+02  0.2977E+03
      2.061  0.4116E+02  0.2978E+03
      2.062  0.4226E+02  0.2978E+03
      2.064  0.4308E+02  0.2979E+03
      2.065  0.4381E+02  0.2979E+03
      2.066  0.4455E+02  0.2980E+03
      2.067  0.4535E+02  0.2981E+03
      2.068  0.4592E+02  0.2981E+03
      2.070  0.4609E+02  0.2982E+03
      2.071  0.4611E+02  0.2982E+03
      2.072  0.4605E+02  0.2983E+03
      2.073  0.4603E+02  0.2983E+03
      2.074  0.4623E+02  0.2984E+03
      2.076  0.4646E+02  0.2984E+03
      2.077  0.4665E+02  0.2985E+03
      2.078  0.4696E+02  0.2986E+03
      2.079  0.4721E+02  0.2986E+03
      2.080  0.4708E+02  0.2987E+03
      2.082  0.4683E+02  0.2987E+03
      2.083  0.4694E+02  0.2988E+03
      2.084  0.4807E+02  0.2988E+03
      2.085  0.4933E+02  0.2989E+03
      2.086  0.5069E+02  0.2990E+03
      2.088  0.5305E+02  0.2990E+03
      2.089  0.5547E+02  0.2991E+03
      2.090  0.5773E+02  0.2991E+03
      2.091  0.5937E+02  0.2992E+03
      2.092  0.6097E+02  0.2993E+03
      2.094  0.6372E+02  0.2994E+03
      2.095  0.6526E+02  0.2994E+03
      2.096  0.6657E+02  0.2995E+03
      2.097  0.6754E+02  0.2996E+03
      2.098  0.6781E+02  0.2997E+03
      2.100  0.6782E+02  0.2998E+03
      2.101  0.6779E+02  0.2998E+03
      2.102  0.6729E+02  0.2999E+03
      2.103  0.6706E+02  0.3000E+03
      2.104  0.6733E+02  0.3001E+03
      2.106  0.6663E+02  0.3002E+03
      2.107  0.6288E+02  0.3002E+03
      2.108  0.6077E+02  0.3003E+03
      2.109  0.5940E+02  0.3004E+03
      2.110  0.5786E+02  0.3005E+03
      2.112  0.5595E+02  0.3005E+03
      2.113  0.5352E+02  0.3006E+03
      2.114  0.5178E+02  0.3007E+03
      2.115  0.4915E+02  0.3007E+03
      2.116  0.4669E+02  0.3008E+03
      2.118  0.4517E+02  0.3008E+03
      2.119  0.4351E+02  0.3009E+03
      2.120  0.4251E+02  0.3009E+03
      2.121  0.4214E+02  0.3010E+03
      2.122  0.4209E+02  0.3010E+03
      2.124  0.4179E+02  0.3011E+03
      2.125  0.4160E+02  0.3011E+03
      2.126  0.4181E+02  0.3012E+03
      2.127  0.4213E+02  0.3012E+03
      2.128  0.4233E+02  0.3013E+03
      2.130  0.4279E+02  0.3013E+03
      2.131  0.4340E+02  0.3014E+03
      2.132  0.4552E+02  0.3014E+03
      2.133  0.4680E+02  0.3015E+03
      2.134  0.4789E+02  0.3016E+03
      2.136  0.4924E+02  0.3016E+03
      2.137  0.5069E+02  0.3017E+03
      2.138  0.5144E+02  0.3017E+03
      2.139  0.5229E+02  0.3018E+03
      2.140  0.5330E+02  0.3019E+03
      2.142  0.5446E+02  0.3019E+03
      2.143  0.5603E+02  0.3020E+03
      2.144  0.5688E+02  0.3021E+03
      2.145  0.5770E+02  0.3021E+03
      2.146  0.5780E+02  0.3022E+03
      2.148  0.5779E+02  0.3023E+03
      2.149  0.5780E+02  0.3023E+03
      2.150  0.5775E+02  0.3024E+03
      2.151  0.5785E+02  0.3025E+03
      2.152  0.5821E+02  0.3025E+03
      2.154  0.5890E+02  0.3026E+03
      2.155  0.5957E+02  0.3027E+03
      2.156  0.6037E+02  0.3028E+03
      2.157  0.6041E+02  0.3028E+03
      2.158  0.6010E+02  0.3029E+03
      2.160  0.5953E+02  0.3030E+03
      2.161  0.5827E+02  0.3031E+03
      2.162  0.5626E+02  0.3031E+03
      2.163  0.5483E+02  0.3032E+03
      2.164  0.5421E+02  0.3033E+03
      2.166  0.5182E+02  0.3033E+03
      2.167  0.4991E+02  0.3034E+03
      2.168  0.4870E+02  0.3034E+03
      2.169  0.4736E+02  0.3035E+03
      2.170  0.4685E+02  0.3035E+03
      2.172  0.4709E+02  0.3036E+03
      2.173  0.4848E+02  0.3037E+03
      2.174  0.5002E+02  0.3037E+03
      2.175  0.5242E+02  0.3038E+03
      2.176  0.5504E+02  0.3038E+03
      2.178  0.5805E+02  0.3039E+03
      2.179  0.6114E+02  0.3040E+03
      2.180  0.6453E+02  0.3041E+03
      2.181  0.6830E+02  0.3041E+03
      2.182  0.7123E+02  0.3042E+03
      2.184  0.7282E+02  0.3043E+03
      2.185  0.7325E+02  0.3044E+03
      2.186  0.7342E+02  0.3045E+03
      2.187  0.7264E+02  0.3046E+03
      2.188  0.7190E+02  0.3047E+03
      2.190  0.7101E+02  0.3047E+03
      2.191  0.7046E+02  0.3048E+03
      2.192  0.6997E+02  0.3049E+03
      2.193  0.6727E+02  0.3050E+03
      2.194  0.6232E+02  0.3051E+03
      2.196  0.5880E+02  0.3052E+03
      2.197  0.5554E+02  0.3052E+03
      2.198  0.5324E+02  0.3053E+03
      2.199  0.5152E+02  0.3053E+03
      2.200  0.5006E+02  0.3054E+03
      2.202  0.4885E+02  0.3055E+03
      2.203  0.4834E+02  0.3055E+03
      2.204  0.4850E+02  0.3056E+03
      2.205  0.4996E+02  0.3056E+03
      2.206  0.4892E+02  0.3057E+03
      2.208  0.4790E+02  0.3058E+03
      2.209  0.4949E+02  0.3058E+03
      2.210  0.5144E+02  0.3059E+03
      2.211  0.5335E+02  0.3059E+03
      2.212  0.5426E+02  0.3060E+03
      2.214  0.5502E+02  0.3061E+03
      2.215  0.5703E+02  0.3061E+03
      2.216  0.5862E+02  0.3062E+03
      2.217  0.5967E+02  0.3063E+03
      2.218  0.6211E+02  0.3064E+03
      2.220  0.6628E+02  0.3064E+03
      2.221  0.6758E+02  0.3065E+03
      2.222  0.6652E+02  0.3066E+03
      2.223  0.6665E+02  0.3067E+03
      2.224  0.6667E+02  0.3068E+03
      2.226  0.6588E+02  0.3068E+03
      2.227  0.6504E+02  0.3069E+03
      2.228  0.6632E+02  0.3070E+03
      2.229  0.6818E+02  0.3071E+03
      2.230  0.6948E+02  0.3072E+03
      2.232  0.7137E+02  0.3072E+03
      2.233  0.7295E+02  0.3073E+03
      2.234  0.7503E+02  0.3074E+03
      2.235  0.7756E+02  0.3075E+03
      2.236  0.8010E+02  0.3076E+03
      2.238  0.8286E+02  0.3077E+03
      2.239  0.8612E+02  0.3078E+03
      2.240  0.8839E+02  0.3079E+03
      2.241  0.9009E+02  0.3080E+03
      2.242  0.8874E+02  0.3081E+03
      2.244  0.8573E+02  0.3082E+03
      2.245  0.8204E+02  0.3083E+03
      2.246  0.7835E+02  0.3084E+03
      2.247  0.7342E+02  0.3085E+03
      2.248  0.7341E+02  0.3086E+03
      2.250  0.7550E+02  0.3087E+03
      2.251  0.7853E+02  0.3088E+03
      2.252  0.8380E+02  0.3089E+03
      2.253  0.9338E+02  0.3090E+03
      2.254  0.8672E+02  0.3091E+03
      2.256  0.8321E+02  0.3092E+03
      2.257  0.8088E+02  0.3093E+03
      2.258  0.7900E+02  0.3094E+03
      2.259  0.7586E+02  0.3095E+03
      2.260  0.7221E+02  0.3096E+03
      2.262  0.6873E+02  0.3097E+03
      2.263  0.6426E+02  0.3097E+03
      2.264  0.6156E+02  0.3098E+03
      2.265  0.5912E+02  0.3099E+03
      2.266  0.5676E+02  0.3099E+03
      2.268  0.5504E+02  0.3100E+03
      2.269  0.5363E+02  0.3101E+03
      2.270  0.5143E+02  0.3101E+03
      2.271  0.4952E+02  0.3102E+03
      2.272  0.4839E+02  0.3103E+03
      2.274  0.4763E+02  0.3103E+03
      2.275  0.4772E+02  0.3104E+03
      2.276  0.4829E+02  0.3104E+03
      2.277  0.4957E+02  0.3105E+03
      2.278  0.5170E+02  0.3106E+03
      2.280  0.5450E+02  0.3106E+03
      2.281  0.5670E+02  0.3107E+03
      2.282  0.5849E+02  0.3108E+03
      2.283  0.6109E+02  0.3108E+03
      2.284  0.6133E+02  0.3109E+03
      2.286  0.6097E+02  0.3110E+03
      2.287  0.5989E+02  0.3110E+03
      2.288  0.5828E+02  0.3111E+03
      2.289  0.5638E+02  0.3112E+03
      2.290  0.5418E+02  0.3113E+03
      2.292  0.5147E+02  0.3113E+03
      2.293  0.4941E+02  0.3114E+03
      2.294  0.4751E+02  0.3114E+03
      2.295  0.4552E+02  0.3115E+03
      2.296  0.4371E+02  0.3115E+03
      2.298  0.4198E+02  0.3116E+03
      2.299  0.4020E+02  0.3116E+03
      2.300  0.3858E+02  0.3117E+03
      2.301  0.3723E+02  0.3117E+03
      2.302  0.3598E+02  0.3118E+03
      2.304  0.3469E+02  0.3118E+03
      2.305  0.3358E+02  0.3119E+03
      2.306  0.3298E+02  0.3119E+03
      2.307  0.3280E+02  0.3119E+03
      2.308  0.3265E+02  0.3120E+03
      2.310  0.3215E+02  0.3120E+03
      2.311  0.3199E+02  0.3121E+03
      2.312  0.3199E+02  0.3121E+03
      2.313  0.3212E+02  0.3121E+03
      2.314  0.3228E+02  0.3122E+03
      2.316  0.3247E+02  0.3122E+03
      2.317  0.3279E+02  0.3123E+03
      2.318  0.3330E+02  0.3123E+03
      2.319  0.3403E+02  0.3123E+03
      2.320  0.3452E+02  0.3124E+03
      2.322  0.3541E+02  0.3124E+03
      2.323  0.3691E+02  0.3125E+03
      2.324  0.3853E+02  0.3125E+03
      2.325  0.3993E+02  0.3126E+03
      2.326  0.4107E+02  0.3126E+03
      2.328  0.4193E+02  0.3127E+03
      2.329  0.4210E+02  0.3127E+03
      2.330  0.4185E+02  0.3128E+03
      2.331  0.4141E+02  0.3128E+03
      2.332  0.4088E+02  0.3129E+03
      2.334  0.4024E+02  0.3129E+03
      2.335  0.3962E+02  0.3129E+03
      2.336  0.3915E+02  0.3130E+03
      2.337  0.3886E+02  0.3130E+03
      2.338  0.3859E+02  0.3131E+03
      2.340  0.3825E+02  0.3131E+03
      2.341  0.3787E+02  0.3132E+03
      2.342  0.3741E+02  0.3132E+03
      2.343  0.3692E+02  0.3133E+03
      2.344  0.3613E+02  0.3133E+03
      2.346  0.3522E+02  0.3134E+03
      2.347  0.3478E+02  0.3134E+03
      2.348  0.3439E+02  0.3134E+03
      2.349  0.3376E+02  0.3135E+03
      2.350  0.3291E+02  0.3135E+03
      2.352  0.3196E+02  0.3136E+03
      2.353  0.3100E+02  0.3136E+03
      2.354  0.2999E+02  0.3136E+03
      2.355  0.2864E+02  0.3137E+03
      2.356  0.2733E+02  0.3137E+03
      2.358  0.2605E+02  0.3137E+03
      2.359  0.2494E+02  0.3138E+03
      2.360  0.2398E+02  0.3138E+03
      2.361  0.2320E+02  0.3138E+03
      2.362  0.2273E+02  0.3139E+03
      2.364  0.2208E+02  0.3139E+03
      2.365  0.2164E+02  0.3139E+03
      2.366  0.2133E+02  0.3139E+03
      2.367  0.2078E+02  0.3140E+03
      2.368  0.2004E+02  0.3140E+03
      2.370  0.1923E+02  0.3140E+03
      2.371  0.1843E+02  0.3140E+03
      2.372  0.1773E+02  0.3140E+03
      2.373  0.1734E+02  0.3141E+03
      2.374  0.1706E+02  0.3141E+03
      2.376  0.1695E+02  0.3141E+03
      2.377  0.1682E+02  0.3141E+03
      2.378  0.1671E+02  0.3141E+03
      2.379  0.1661E+02  0.3142E+03
      2.380  0.1654E+02  0.3142E+03
      2.382  0.1651E+02  0.3142E+03
      2.383  0.1656E+02  0.3142E+03
      2.384  0.1669E+02  0.3142E+03
      2.385  0.1690E+02  0.3143E+03
      2.386  0.1722E+02  0.3143E+03
      2.388  0.1804E+02  0.3143E+03
      2.389  0.1946E+02  0.3143E+03
      2.390  0.2121E+02  0.3144E+03
      2.391  0.2249E+02  0.3144E+03
      2.392  0.2459E+02  0.3144E+03
      2.394  0.2613E+02  0.3144E+03
      2.395  0.2769E+02  0.3145E+03
      2.396  0.2769E+02  0.3145E+03
      2.397  0.2792E+02  0.3145E+03
      2.398  0.2857E+02  0.3146E+03
      2.400  0.2957E+02  0.3146E+03
      2.401  0.2895E+02  0.3146E+03
      2.402  0.3025E+02  0.3147E+03
      2.403  0.2997E+02  0.3147E+03
      2.404  0.2959E+02  0.3148E+03
      2.406  0.3022E+02  0.3148E+03
      2.407  0.3089E+02  0.3148E+03
      2.408  0.3145E+02  0.3149E+03
      2.409  0.3161E+02  0.3149E+03
      2.410  0.3131E+02  0.3149E+03
      2.412  0.3081E+02  0.3150E+03
      2.413  0.3018E+02  0.3150E+03
      2.414  0.2942E+02  0.3150E+03
      2.415  0.2873E+02  0.3151E+03
      2.416  0.2825E+02  0.3151E+03
      2.418  0.2788E+02  0.3152E+03
      2.419  0.2751E+02  0.3152E+03
      2.420  0.2720E+02  0.3152E+03
      2.421  0.2694E+02  0.3152E+03
      2.422  0.2678E+02  0.3153E+03
      2.424  0.2640E+02  0.3153E+03
      2.425  0.2611E+02  0.3153E+03
      2.426  0.2585E+02  0.3154E+03
      2.427  0.2599E+02  0.3154E+03
      2.428  0.2650E+02  0.3154E+03
      2.430  0.2693E+02  0.3155E+03
      2.431  0.2730E+02  0.3155E+03
      2.432  0.2770E+02  0.3155E+03
      2.433  0.2824E+02  0.3156E+03
      2.434  0.2866E+02  0.3156E+03
      2.436  0.2893E+02  0.3156E+03
      2.437  0.2884E+02  0.3157E+03
      2.438  0.2841E+02  0.3157E+03
      2.439  0.2764E+02  0.3157E+03
      2.440  0.2682E+02  0.3158E+03
      2.442  0.2604E+02  0.3158E+03
      2.443  0.2527E+02  0.3158E+03
      2.444  0.2450E+02  0.3159E+03
      2.445  0.2374E+02  0.3159E+03
      2.446  0.2299E+02  0.3159E+03
      2.448  0.2225E+02  0.3160E+03
      2.449  0.2155E+02  0.3160E+03
      2.450  0.2096E+02  0.3160E+03
      2.451  0.2044E+02  0.3160E+03
      2.452  0.2008E+02  0.3161E+03
      2.454  0.1979E+02  0.3161E+03
      2.455  0.1952E+02  0.3161E+03
      2.456  0.1927E+02  0.3161E+03
      2.457  0.1903E+02  0.3161E+03
      2.458  0.1882E+02  0.3162E+03
      2.460  0.1864E+02  0.3162E+03
      2.461  0.1858E+02  0.3162E+03
      2.462  0.1852E+02  0.3162E+03
      2.463  0.1839E+02  0.3163E+03
      2.464  0.1815E+02  0.3163E+03
      2.466  0.1778E+02  0.3163E+03
      2.467  0.1723E+02  0.3163E+03
      2.468  0.1708E+02  0.3163E+03
      2.469  0.1735E+02  0.3164E+03
      2.470  0.1720E+02  0.3164E+03
      2.472  0.1734E+02  0.3164E+03
      2.473  0.1753E+02  0.3164E+03
      2.474  0.1773E+02  0.3164E+03
      2.475  0.1791E+02  0.3165E+03
      2.476  0.1806E+02  0.3165E+03
      2.478  0.1823E+02  0.3165E+03
      2.479  0.1854E+02  0.3165E+03
      2.480  0.1915E+02  0.3166E+03
      2.481  0.2022E+02  0.3166E+03
      2.482  0.2139E+02  0.3166E+03
      2.484  0.2242E+02  0.3166E+03
      2.485  0.2320E+02  0.3167E+03
      2.486  0.2426E+02  0.3167E+03
      2.487  0.2616E+02  0.3167E+03
      2.488  0.2877E+02  0.3167E+03
      2.490  0.3239E+02  0.3168E+03
      2.491  0.3616E+02  0.3168E+03
      2.492  0.3929E+02  0.3169E+03
      2.493  0.4144E+02  0.3169E+03
      2.494  0.4341E+02  0.3170E+03
      2.496  0.4525E+02  0.3170E+03
      2.497  0.4690E+02  0.3171E+03
      2.498  0.4823E+02  0.3171E+03
      2.499  0.4905E+02  0.3172E+03
      2.500  0.4930E+02  0.3173E+03
      2.502  0.4999E+02  0.3173E+03
      2.503  0.5117E+02  0.3174E+03
      2.504  0.5274E+02  0.3174E+03
      2.505  0.5405E+02  0.3175E+03
      2.506  0.5492E+02  0.3176E+03
      2.508  0.5550E+02  0.3176E+03
      2.509  0.5129E+02  0.3177E+03
      2.510  0.4609E+02  0.3178E+03
      2.511  0.4536E+02  0.3178E+03
      2.512  0.4414E+02  0.3179E+03
      2.514  0.4423E+02  0.3179E+03
      2.515  0.4424E+02  0.3180E+03
      2.516  0.4426E+02  0.3180E+03
      2.517  0.4424E+02  0.3181E+03
      2.518  0.4397E+02  0.3181E+03
      2.520  0.4260E+02  0.3182E+03
      2.521  0.4069E+02  0.3182E+03
      2.522  0.3924E+02  0.3183E+03
      2.523  0.3859E+02  0.3183E+03
      2.524  0.3813E+02  0.3184E+03
      2.526  0.3761E+02  0.3184E+03
      2.527  0.3727E+02  0.3185E+03
      2.528  0.3708E+02  0.3185E+03
      2.529  0.3700E+02  0.3186E+03
      2.530  0.3700E+02  0.3186E+03
      2.532  0.3707E+02  0.3186E+03
      2.533  0.3717E+02  0.3187E+03
      2.534  0.3730E+02  0.3187E+03
      2.535  0.3744E+02  0.3188E+03
      2.536  0.3750E+02  0.3188E+03
      2.538  0.3745E+02  0.3189E+03
      2.539  0.3720E+02  0.3189E+03
      2.540  0.3731E+02  0.3190E+03
      2.541  0.3915E+02  0.3190E+03
      2.542  0.4024E+02  0.3190E+03
      2.544  0.4201E+02  0.3191E+03
      2.545  0.4069E+02  0.3191E+03
      2.546  0.3568E+02  0.3192E+03
      2.547  0.3497E+02  0.3192E+03
      2.548  0.3433E+02  0.3193E+03
      2.550  0.3390E+02  0.3193E+03
      2.551  0.3391E+02  0.3194E+03
      2.552  0.3417E+02  0.3194E+03
      2.553  0.3445E+02  0.3194E+03
      2.554  0.3479E+02  0.3195E+03
      2.556  0.3489E+02  0.3195E+03
      2.557  0.3429E+02  0.3196E+03
      2.558  0.3271E+02  0.3196E+03
      2.559  0.3068E+02  0.3196E+03
      2.560  0.2871E+02  0.3197E+03
      2.562  0.2672E+02  0.3197E+03
      2.563  0.2489E+02  0.3197E+03
      2.564  0.2317E+02  0.3198E+03
      2.565  0.2209E+02  0.3198E+03
      2.566  0.2166E+02  0.3198E+03
      2.568  0.2153E+02  0.3199E+03
      2.569  0.2155E+02  0.3199E+03
      2.570  0.2152E+02  0.3199E+03
      2.571  0.2107E+02  0.3199E+03
      2.572  0.2045E+02  0.3200E+03
      2.574  0.1936E+02  0.3200E+03
      2.575  0.1825E+02  0.3200E+03
      2.576  0.1738E+02  0.3200E+03
      2.577  0.1678E+02  0.3200E+03
      2.578  0.1616E+02  0.3201E+03
      2.580  0.1576E+02  0.3201E+03
      2.581  0.1555E+02  0.3201E+03
      2.582  0.1514E+02  0.3201E+03
      2.583  0.1458E+02  0.3201E+03
      2.584  0.1381E+02  0.3202E+03
      2.586  0.1290E+02  0.3202E+03
      2.587  0.1204E+02  0.3202E+03
      2.588  0.1107E+02  0.3202E+03
      2.589  0.1026E+02  0.3202E+03
      2.590  0.9676E+01  0.3202E+03
      2.592  0.9230E+01  0.3202E+03
      2.593  0.8832E+01  0.3202E+03
      2.594  0.8461E+01  0.3203E+03
      2.595  0.8117E+01  0.3203E+03
      2.596  0.7800E+01  0.3203E+03
      2.598  0.7510E+01  0.3203E+03
      2.599  0.7257E+01  0.3203E+03
      2.600  0.7048E+01  0.3203E+03
      2.601  0.6879E+01  0.3203E+03
      2.602  0.6722E+01  0.3203E+03
      2.604  0.6566E+01  0.3203E+03
      2.605  0.6410E+01  0.3203E+03
      2.606  0.6254E+01  0.3203E+03
      2.607  0.6093E+01  0.3203E+03
      2.608  0.5886E+01  0.3204E+03
      2.610  0.5605E+01  0.3204E+03
      2.611  0.5249E+01  0.3204E+03
      2.612  0.4712E+01  0.3204E+03
      2.613  0.4301E+01  0.3204E+03
      2.614  0.3961E+01  0.3204E+03
      2.616  0.3569E+01  0.3204E+03
      2.617  0.3125E+01  0.3204E+03
      2.618  0.2664E+01  0.3204E+03
      2.619  0.2338E+01  0.3204E+03
      2.620  0.2180E+01  0.3204E+03
      2.622  0.2134E+01  0.3204E+03
      2.623  0.2132E+01  0.3204E+03
      2.624  0.2130E+01  0.3204E+03
      2.625  0.2129E+01  0.3204E+03
      2.626  0.2127E+01  0.3204E+03
      2.628  0.2125E+01  0.3204E+03
      2.629  0.2123E+01  0.3204E+03
      2.630  0.2120E+01  0.3204E+03
      2.631  0.2116E+01  0.3204E+03
      2.632  0.2113E+01  0.3204E+03
      2.634  0.2110E+01  0.3204E+03
      2.635  0.2107E+01  0.3204E+03
      2.636  0.2104E+01  0.3204E+03
      2.637  0.2101E+01  0.3204E+03
      2.638  0.2098E+01  0.3204E+03
      2.640  0.2095E+01  0.3204E+03
      2.641  0.2091E+01  0.3204E+03
      2.642  0.2088E+01  0.3204E+03
      2.643  0.2085E+01  0.3205E+03
      2.644  0.2082E+01  0.3205E+03
      2.646  0.2079E+01  0.3205E+03
      2.647  0.2076E+01  0.3205E+03
      2.648  0.2073E+01  0.3205E+03
      2.649  0.2069E+01  0.3205E+03
      2.650  0.2066E+01  0.3205E+03
      2.652  0.2063E+01  0.3205E+03
      2.653  0.2060E+01  0.3205E+03
      2.654  0.2057E+01  0.3205E+03
      2.655  0.2054E+01  0.3205E+03
      2.656  0.2051E+01  0.3205E+03
      2.658  0.2048E+01  0.3205E+03
      2.659  0.2044E+01  0.3205E+03
      2.660  0.2041E+01  0.3205E+03
      2.661  0.2038E+01  0.3205E+03
      2.662  0.2035E+01  0.3205E+03
      2.664  0.2032E+01  0.3205E+03
      2.665  0.2029E+01  0.3205E+03
      2.666  0.2026E+01  0.3205E+03
      2.667  0.2022E+01  0.3205E+03
      2.668  0.2019E+01  0.3205E+03
      2.670  0.2016E+01  0.3205E+03
      2.671  0.2013E+01  0.3205E+03
      2.672  0.2010E+01  0.3205E+03
      2.673  0.2007E+01  0.3205E+03
      2.674  0.2004E+01  0.3205E+03
      2.676  0.2001E+01  0.3205E+03
      2.677  0.1997E+01  0.3205E+03
      2.678  0.1994E+01  0.3205E+03
      2.679  0.1991E+01  0.3205E+03
      2.680  0.1988E+01  0.3205E+03
      2.682  0.1985E+01  0.3205E+03
      2.683  0.1982E+01  0.3205E+03
      2.684  0.1979E+01  0.3205E+03
      2.685  0.1975E+01  0.3205E+03
      2.686  0.1972E+01  0.3205E+03
      2.688  0.1969E+01  0.3205E+03
      2.689  0.1966E+01  0.3205E+03
      2.690  0.1963E+01  0.3205E+03
      2.691  0.1960E+01  0.3205E+03
      2.692  0.1957E+01  0.3206E+03
      2.694  0.1954E+01  0.3206E+03
      2.695  0.1951E+01  0.3206E+03
      2.696  0.1948E+01  0.3206E+03
      2.697  0.1946E+01  0.3206E+03
      2.698  0.1943E+01  0.3206E+03
      2.700  0.1939E+01  0.3206E+03
      2.701  0.1936E+01  0.3206E+03
      2.702  0.1933E+01  0.3206E+03
      2.703  0.1930E+01  0.3206E+03
      2.704  0.1928E+01  0.3206E+03
      2.706  0.1926E+01  0.3206E+03
      2.707  0.1923E+01  0.3206E+03
      2.708  0.1921E+01  0.3206E+03
      2.709  0.1920E+01  0.3206E+03
      2.710  0.1919E+01  0.3206E+03
      2.712  0.1918E+01  0.3206E+03
      2.713  0.1917E+01  0.3206E+03
      2.714  0.1916E+01  0.3206E+03
      2.715  0.1915E+01  0.3206E+03
      2.716  0.1913E+01  0.3206E+03
      2.718  0.1912E+01  0.3206E+03
      2.719  0.1911E+01  0.3206E+03
      2.720  0.1910E+01  0.3206E+03
      2.721  0.1909E+01  0.3206E+03
      2.722  0.1908E+01  0.3206E+03
      2.724  0.1907E+01  0.3206E+03
      2.725  0.1906E+01  0.3206E+03
      2.726  0.1905E+01  0.3206E+03
      2.727  0.1904E+01  0.3206E+03
      2.728  0.1904E+01  0.3206E+03
      2.730  0.1905E+01  0.3206E+03
      2.731  0.1906E+01  0.3206E+03
      2.732  0.1909E+01  0.3206E+03
      2.733  0.1911E+01  0.3206E+03
      2.734  0.1914E+01  0.3206E+03
      2.736  0.1917E+01  0.3206E+03
      2.737  0.1920E+01  0.3206E+03
      2.738  0.1923E+01  0.3206E+03
      2.739  0.1926E+01  0.3206E+03
      2.740  0.1928E+01  0.3206E+03
      2.742  0.1931E+01  0.3206E+03
      2.743  0.1934E+01  0.3206E+03
      2.744  0.1937E+01  0.3206E+03
      2.745  0.1940E+01  0.3207E+03
      2.746  0.1942E+01  0.3207E+03
      2.748  0.1945E+01  0.3207E+03
      2.749  0.1948E+01  0.3207E+03
      2.750  0.1951E+01  0.3207E+03
      2.751  0.1954E+01  0.3207E+03
      2.752  0.1956E+01  0.3207E+03
      2.754  0.1959E+01  0.3207E+03
      2.755  0.1962E+01  0.3207E+03
      2.756  0.1965E+01  0.3207E+03
      2.757  0.1968E+01  0.3207E+03
      2.758  0.1970E+01  0.3207E+03
      2.760  0.1973E+01  0.3207E+03
      2.761  0.1976E+01  0.3207E+03
      2.762  0.1979E+01  0.3207E+03
      2.763  0.1982E+01  0.3207E+03
      2.764  0.1984E+01  0.3207E+03
      2.766  0.1987E+01  0.3207E+03
      2.767  0.1990E+01  0.3207E+03
      2.768  0.1993E+01  0.3207E+03
      2.769  0.1996E+01  0.3207E+03
      2.770  0.1998E+01  0.3207E+03
      2.772  0.2001E+01  0.3207E+03
      2.773  0.2004E+01  0.3207E+03
      2.774  0.2007E+01  0.3207E+03
      2.775  0.2010E+01  0.3207E+03
      2.776  0.2012E+01  0.3207E+03
      2.778  0.2015E+01  0.3207E+03
      2.779  0.2018E+01  0.3207E+03
      2.780  0.2021E+01  0.3207E+03
      2.781  0.2024E+01  0.3207E+03
      2.782  0.2026E+01  0.3207E+03
      2.784  0.2029E+01  0.3207E+03
      2.785  0.2032E+01  0.3207E+03
      2.786  0.2035E+01  0.3207E+03
      2.787  0.2038E+01  0.3207E+03
      2.788  0.2040E+01  0.3207E+03
      2.790  0.2043E+01  0.3207E+03
      2.791  0.2046E+01  0.3207E+03
      2.792  0.2049E+01  0.3207E+03
      2.793  0.2052E+01  0.3207E+03
      2.794  0.2054E+01  0.3208E+03
      2.796  0.2057E+01  0.3208E+03
      2.797  0.2060E+01  0.3208E+03
      2.798  0.2063E+01  0.3208E+03
      2.799  0.2066E+01  0.3208E+03
      2.800  0.2068E+01  0.3208E+03
      2.802  0.2072E+01  0.3208E+03
      2.803  0.2075E+01  0.3208E+03
      2.804  0.2079E+01  0.3208E+03
      2.805  0.2083E+01  0.3208E+03
      2.806  0.2087E+01  0.3208E+03
      2.808  0.2091E+01  0.3208E+03
      2.809  0.2095E+01  0.3208E+03
      2.810  0.2100E+01  0.3208E+03
      2.811  0.2104E+01  0.3208E+03
      2.812  0.2109E+01  0.3208E+03
      2.814  0.2113E+01  0.3208E+03
      2.815  0.2117E+01  0.3208E+03
      2.816  0.2122E+01  0.3208E+03
      2.817  0.2127E+01  0.3208E+03
      2.818  0.2131E+01  0.3208E+03
      2.820  0.2136E+01  0.3208E+03
      2.821  0.2141E+01  0.3208E+03
      2.822  0.2146E+01  0.3208E+03
      2.823  0.2151E+01  0.3208E+03
      2.824  0.2156E+01  0.3208E+03
      2.826  0.2161E+01  0.3208E+03
      2.827  0.2166E+01  0.3208E+03
      2.828  0.2171E+01  0.3208E+03
      2.829  0.2176E+01  0.3208E+03
      2.830  0.2182E+01  0.3208E+03
      2.832  0.2187E+01  0.3208E+03
      2.833  0.2192E+01  0.3208E+03
      2.834  0.2197E+01  0.3208E+03
      2.835  0.2202E+01  0.3208E+03
      2.836  0.2207E+01  0.3208E+03
      2.838  0.2212E+01  0.3208E+03
      2.839  0.2217E+01  0.3208E+03
      2.840  0.2222E+01  0.3208E+03
      2.841  0.2227E+01  0.3209E+03
      2.842  0.2232E+01  0.3209E+03
      2.844  0.2238E+01  0.3209E+03
      2.845  0.2243E+01  0.3209E+03
      2.846  0.2248E+01  0.3209E+03
      2.847  0.2253E+01  0.3209E+03
      2.848  0.2258E+01  0.3209E+03
      2.850  0.2263E+01  0.3209E+03
      2.851  0.2268E+01  0.3209E+03
      2.852  0.2273E+01  0.3209E+03
      2.853  0.2278E+01  0.3209E+03
      2.854  0.2283E+01  0.3209E+03
      2.856  0.2288E+01  0.3209E+03
      2.857  0.2294E+01  0.3209E+03
      2.858  0.2299E+01  0.3209E+03
      2.859  0.2304E+01  0.3209E+03
      2.860  0.2309E+01  0.3209E+03
      2.862  0.2314E+01  0.3209E+03
      2.863  0.2319E+01  0.3209E+03
      2.864  0.2324E+01  0.3209E+03
      2.865  0.2329E+01  0.3209E+03
      2.866  0.2334E+01  0.3209E+03
      2.868  0.2339E+01  0.3209E+03
      2.869  0.2344E+01  0.3209E+03
      2.870  0.2350E+01  0.3209E+03
      2.871  0.2355E+01  0.3209E+03
      2.872  0.2360E+01  0.3209E+03
      2.874  0.2365E+01  0.3209E+03
      2.875  0.2370E+01  0.3209E+03
      2.876  0.2375E+01  0.3209E+03
      2.877  0.2380E+01  0.3209E+03
      2.878  0.2385E+01  0.3209E+03
      2.880  0.2390E+01  0.3209E+03
      2.881  0.2395E+01  0.3209E+03
      2.882  0.2400E+01  0.3209E+03
      2.883  0.2406E+01  0.3209E+03
      2.884  0.2411E+01  0.3210E+03
      2.886  0.2416E+01  0.3210E+03
      2.887  0.2421E+01  0.3210E+03
      2.888  0.2426E+01  0.3210E+03
      2.889  0.2431E+01  0.3210E+03
      2.890  0.2436E+01  0.3210E+03
      2.892  0.2441E+01  0.3210E+03
      2.893  0.2446E+01  0.3210E+03
      2.894  0.2451E+01  0.3210E+03
      2.895  0.2456E+01  0.3210E+03
      2.896  0.2461E+01  0.3210E+03
      2.898  0.2467E+01  0.3210E+03
      2.899  0.2472E+01  0.3210E+03
      2.900  0.2477E+01  0.3210E+03
      2.901  0.2482E+01  0.3210E+03
      2.902  0.2487E+01  0.3210E+03
      2.904  0.2492E+01  0.3210E+03
      2.905  0.2497E+01  0.3210E+03
      2.906  0.2502E+01  0.3210E+03
      2.907  0.2507E+01  0.3210E+03
      2.908  0.2512E+01  0.3210E+03
      2.910  0.2517E+01  0.3210E+03
      2.911  0.2522E+01  0.3210E+03
      2.912  0.2528E+01  0.3210E+03
      2.913  0.2533E+01  0.3210E+03
      2.914  0.2538E+01  0.3210E+03
      2.916  0.2543E+01  0.3210E+03
      2.917  0.2548E+01  0.3210E+03
      2.918  0.2553E+01  0.3210E+03
      2.919  0.2558E+01  0.3210E+03
      2.920  0.2563E+01  0.3210E+03
      2.922  0.2568E+01  0.3210E+03
      2.923  0.2573E+01  0.3210E+03
      2.924  0.2578E+01  0.3210E+03
      2.925  0.2584E+01  0.3211E+03
      2.926  0.2590E+01  0.3211E+03
      2.928  0.2597E+01  0.3211E+03
      2.929  0.2607E+01  0.3211E+03
      2.930  0.2617E+01  0.3211E+03
      2.931  0.2626E+01  0.3211E+03
      2.932  0.2636E+01  0.3211E+03
      2.934  0.2645E+01  0.3211E+03
      2.935  0.2655E+01  0.3211E+03
      2.936  0.2665E+01  0.3211E+03
      2.937  0.2674E+01  0.3211E+03
      2.938  0.2684E+01  0.3211E+03
      2.940  0.2694E+01  0.3211E+03
      2.941  0.2778E+01  0.3211E+03
      2.942  0.3031E+01  0.3211E+03
      2.943  0.3310E+01  0.3211E+03
      2.944  0.3447E+01  0.3211E+03
      2.946  0.3545E+01  0.3211E+03
      2.947  0.3619E+01  0.3211E+03
      2.948  0.3693E+01  0.3211E+03
      2.949  0.3766E+01  0.3211E+03
      2.950  0.3840E+01  0.3211E+03
      2.952  0.3934E+01  0.3211E+03
      2.953  0.4835E+01  0.3211E+03
      2.954  0.6636E+01  0.3211E+03
      2.955  0.8698E+01  0.3212E+03
      2.956  0.9849E+01  0.3212E+03
      2.958  0.1075E+02  0.3212E+03
      2.959  0.1152E+02  0.3212E+03
      2.960  0.1210E+02  0.3212E+03
      2.961  0.1266E+02  0.3212E+03
      2.962  0.1321E+02  0.3212E+03
      2.964  0.1378E+02  0.3213E+03
      2.965  0.1435E+02  0.3213E+03
      2.966  0.1490E+02  0.3213E+03
      2.967  0.1525E+02  0.3213E+03
      2.968  0.1548E+02  0.3213E+03
      2.970  0.1554E+02  0.3213E+03
      2.971  0.1557E+02  0.3214E+03
      2.972  0.1585E+02  0.3214E+03
      2.973  0.1647E+02  0.3214E+03
      2.974  0.1712E+02  0.3214E+03
      2.976  0.1782E+02  0.3214E+03
      2.977  0.1858E+02  0.3215E+03
      2.978  0.1938E+02  0.3215E+03
      2.979  0.2023E+02  0.3215E+03
      2.980  0.2130E+02  0.3215E+03
      2.982  0.2244E+02  0.3216E+03
      2.983  0.2332E+02  0.3216E+03
      2.984  0.2411E+02  0.3216E+03
      2.985  0.2484E+02  0.3216E+03
      2.986  0.2521E+02  0.3217E+03
      2.988  0.2656E+02  0.3217E+03
      2.989  0.2771E+02  0.3217E+03
      2.990  0.2929E+02  0.3218E+03