 vasp.5.4.1 24Jun15 (build Nov 23 2020 15:49:04) complex                        
  
 executed on           IFC91_ompi date 2021.01.28  11:29:02
 running on   60 total cores
 distrk:  each k-point on   60 cores,    1 groups
 distr:  one band on NCORES_PER_BAND=   1 cores,   60 groups


--------------------------------------------------------------------------------------------------------


 INCAR:
 POTCAR:   PAW_PBE Ca_sv 06Sep2000                
 POTCAR:   PAW_PBE Ru 06Sep2000                   
 POTCAR:   PAW_PBE O 08Apr2002                    

 ----------------------------------------------------------------------------- 
|                                                                             |
|           W    W    AA    RRRRR   N    N  II  N    N   GGGG   !!!           |
|           W    W   A  A   R    R  NN   N  II  NN   N  G    G  !!!           |
|           W    W  A    A  R    R  N N  N  II  N N  N  G       !!!           |
|           W WW W  AAAAAA  RRRRR   N  N N  II  N  N N  G  GGG   !            |
|           WW  WW  A    A  R   R   N   NN  II  N   NN  G    G                |
|           W    W  A    A  R    R  N    N  II  N    N   GGGG   !!!           |
|                                                                             |
|      For optimal performance we recommend to set                            |
|        NCORE= 4 - approx SQRT( number of cores)                             |
|      NCORE specifies how many cores store one orbital (NPAR=cpu/NCORE).     |
|      This setting can  greatly improve the performance of VASP for DFT.     |
|      The default, NPAR=number of cores might be grossly inefficient         |
|      on modern multi-core architectures or massively parallel machines.     |
|      Do your own testing !!!!                                               |
|      Unfortunately you need to use the default for GW and RPA calculations. |
|      (for HF NCORE is supported but not extensively tested yet)             |
|                                                                             |
 ----------------------------------------------------------------------------- 

 POTCAR:   PAW_PBE Ca_sv 06Sep2000                
   VRHFIN =Ca: 3s3p4s                                                           
   LEXCH  = PE                                                                  
   EATOM  =  1005.7249 eV,   73.9187 Ry                                         
                                                                                
   TITEL  = PAW_PBE Ca_sv 06Sep2000                                             
   LULTRA =        F    use ultrasoft PP ?                                      
   IUNSCR =        1    unscreen: 0-lin 1-nonlin 2-no                           
   RPACOR =    2.000    partial core radius                                     
   POMASS =   40.078; ZVAL   =   10.000    mass and valenz                      
   RCORE  =    2.300    outmost cutoff radius                                   
   RWIGS  =    2.500; RWIGS  =    1.323    wigner-seitz radius (au A)           
   ENMAX  =  266.586; ENMIN  =  199.939 eV                                      
   RCLOC  =    1.808    cutoff for local pot                                    
   LCOR   =        T    correct aug charges                                     
   LPAW   =        T    paw PP                                                  
   EAUG   =  420.852                                                            
   DEXC   =     .000                                                            
   RMAX   =    2.824    core radius for proj-oper                               
   RAUG   =    1.300    factor for augmentation sphere                          
   RDEP   =    2.392    radius for radial grids                                 
   QCUT   =   -4.426; QGAM   =    8.853    optimization parameters              
                                                                                
   Description                                                                  
     l     E      TYP  RCUT    TYP  RCUT                                        
     0   .000     23  2.300                                                     
     0   .000     23  2.300                                                     
     1   .000     23  2.300                                                     
     1   .500     23  2.300                                                     
     2   .000     23  2.300                                                     
     2   .000     23  2.300                                                     
  local pseudopotential read in
  partial core-charges read in
  atomic valenz-charges read in
  non local Contribution for L=           0  read in
    real space projection operators read in
  non local Contribution for L=           0  read in
    real space projection operators read in
  non local Contribution for L=           1  read in
    real space projection operators read in
  non local Contribution for L=           1  read in
    real space projection operators read in
  non local Contribution for L=           2  read in
    real space projection operators read in
  non local Contribution for L=           2  read in
    real space projection operators read in
    PAW grid and wavefunctions read in
 
   number of l-projection  operators is LMAX  =           6
   number of lm-projection operators is LMMAX =          18
 
 POTCAR:   PAW_PBE Ru 06Sep2000                   
   VRHFIN =Ru: s1 d7                                                            
   LEXCH  = PE                                                                  
   EATOM  =   454.9988 eV,   33.4415 Ry                                         
                                                                                
   TITEL  = PAW_PBE Ru 06Sep2000                                                
   LULTRA =        F    use ultrasoft PP ?                                      
   IUNSCR =        1    unscreen: 0-lin 1-nonlin 2-no                           
   RPACOR =    2.170    partial core radius                                     
   POMASS =  101.070; ZVAL   =    8.000    mass and valenz                      
   RCORE  =    2.600    outmost cutoff radius                                   
   RWIGS  =    2.650; RWIGS  =    1.402    wigner-seitz radius (au A)           
   ENMAX  =  213.276; ENMIN  =  159.957 eV                                      
   RCLOC  =    1.830    cutoff for local pot                                    
   LCOR   =        T    correct aug charges                                     
   LPAW   =        T    paw PP                                                  
   EAUG   =  333.494                                                            
   DEXC   =    -.052                                                            
   RMAX   =    3.157    core radius for proj-oper                               
   RAUG   =    1.300    factor for augmentation sphere                          
   RDEP   =    2.687    radius for radial grids                                 
   QCUT   =   -3.959; QGAM   =    7.918    optimization parameters              
                                                                                
   Description                                                                  
     l     E      TYP  RCUT    TYP  RCUT                                        
     2   .000     23  2.600                                                     
     2   .000     23  2.600                                                     
     0   .000     23  2.600                                                     
     0   .000     23  2.600                                                     
     1  -.200     23  2.600                                                     
     1  2.000     23  2.600                                                     
     3   .000      7   .000                                                     
  local pseudopotential read in
  partial core-charges read in
  atomic valenz-charges read in
  non local Contribution for L=           2  read in
    real space projection operators read in
  non local Contribution for L=           2  read in
    real space projection operators read in
  non local Contribution for L=           0  read in
    real space projection operators read in
  non local Contribution for L=           0  read in
    real space projection operators read in
  non local Contribution for L=           1  read in
    real space projection operators read in
  non local Contribution for L=           1  read in
    real space projection operators read in
    PAW grid and wavefunctions read in
 
   number of l-projection  operators is LMAX  =           6
   number of lm-projection operators is LMMAX =          18
 
 POTCAR:   PAW_PBE O 08Apr2002                    
   VRHFIN =O: s2p4                                                              
   LEXCH  = PE                                                                  
   EATOM  =   432.3788 eV,   31.7789 Ry                                         
                                                                                
   TITEL  = PAW_PBE O 08Apr2002                                                 
   LULTRA =        F    use ultrasoft PP ?                                      
   IUNSCR =        0    unscreen: 0-lin 1-nonlin 2-no                           
   RPACOR =     .000    partial core radius                                     
   POMASS =   16.000; ZVAL   =    6.000    mass and valenz                      
   RCORE  =    1.520    outmost cutoff radius                                   
   RWIGS  =    1.550; RWIGS  =     .820    wigner-seitz radius (au A)           
   ENMAX  =  400.000; ENMIN  =  300.000 eV                                      
   ICORE  =        2    local potential                                         
   LCOR   =        T    correct aug charges                                     
   LPAW   =        T    paw PP                                                  
   EAUG   =  605.392                                                            
   DEXC   =     .000                                                            
   RMAX   =    2.264    core radius for proj-oper                               
   RAUG   =    1.300    factor for augmentation sphere                          
   RDEP   =    1.550    radius for radial grids                                 
   QCUT   =   -5.520; QGAM   =   11.041    optimization parameters              
                                                                                
   Description                                                                  
     l     E      TYP  RCUT    TYP  RCUT                                        
     0   .000     23  1.200                                                     
     0  -.700     23  1.200                                                     
     1   .000     23  1.520                                                     
     1   .600     23  1.520                                                     
     2   .000      7  1.500                                                     
  local pseudopotential read in
  atomic valenz-charges read in
  non local Contribution for L=           0  read in
    real space projection operators read in
  non local Contribution for L=           0  read in
    real space projection operators read in
  non local Contribution for L=           1  read in
    real space projection operators read in
  non local Contribution for L=           1  read in
    real space projection operators read in
    PAW grid and wavefunctions read in
 
   number of l-projection  operators is LMAX  =           4
   number of lm-projection operators is LMMAX =           8
 
 Optimization of the real space projectors (new method)

 maximal supplied QI-value         = 16.25
 optimisation between [QCUT,QGAM] = [ 13.00, 26.00] = [ 47.33,189.34] Ry 
 Optimized for a Real-space Cutoff    1.50 Angstroem

   l    n(q)    QCUT    max X(q) W(low)/X(q) W(high)/X(q)  e(spline) 
   0     12    13.001     7.403    0.17E-04    0.82E-06    0.36E-07
   0     12    13.001     9.546    0.40E-04    0.58E-06    0.17E-06
   1     11    13.001     4.052    0.78E-06    0.34E-05    0.48E-07
   1     11    13.001     4.361    0.31E-04    0.13E-04    0.20E-06
   2     11    13.001     3.295    0.82E-05    0.30E-05    0.74E-07
   2     11    13.001     3.401    0.13E-03    0.78E-04    0.14E-05
 Optimization of the real space projectors (new method)

 maximal supplied QI-value         = 14.36
 optimisation between [QCUT,QGAM] = [ 12.93, 26.00] = [ 46.79,189.23] Ry 
 Optimized for a Real-space Cutoff    1.50 Angstroem

   l    n(q)    QCUT    max X(q) W(low)/X(q) W(high)/X(q)  e(spline) 
   2     11    12.926     4.169    0.24E-04    0.83E-05    0.78E-07
   2     11    12.926    32.777    0.16E-03    0.97E-04    0.89E-06
   0     12    12.926    20.036    0.12E-04    0.59E-05    0.22E-07
   0     12    12.926    52.608    0.37E-04    0.60E-04    0.40E-06
   1     11    12.926     8.373    0.14E-04    0.24E-05    0.17E-06
   1     11    12.926    10.836    0.50E-04    0.94E-05    0.46E-06
 Optimization of the real space projectors (new method)

 maximal supplied QI-value         = 24.76
 optimisation between [QCUT,QGAM] = [ 12.87, 25.99] = [ 46.40,189.20] Ry 
 Optimized for a Real-space Cutoff    1.12 Angstroem

   l    n(q)    QCUT    max X(q) W(low)/X(q) W(high)/X(q)  e(spline) 
   0      9    12.873     4.192    0.30E-04    0.37E-05    0.54E-07
   0      9    12.873     8.473    0.23E-03    0.89E-04    0.25E-06
   1      8    12.873     2.474    0.40E-04    0.36E-04    0.27E-07
   1      8    12.873     3.912    0.22E-03    0.25E-03    0.19E-06

 ----------------------------------------------------------------------------- 
|                                                                             |
|  ADVICE TO THIS USER RUNNING 'VASP/VAMP'   (HEAR YOUR MASTER'S VOICE ...):  |
|                                                                             |
|      You enforced a specific xc-type in the INCAR file,                     |
|      a different type was found on the POTCAR file                          |
|          I HOPE YOU KNOW, WHAT YOU ARE  DOING                               |
|                                                                             |
 ----------------------------------------------------------------------------- 

 PAW_PBE Ca_sv 06Sep2000                :
 energy of atom  1       EATOM=-1005.7249
 kinetic energy error for atom=    0.0009 (will be added to EATOM!!)
 PAW_PBE Ru 06Sep2000                   :
 energy of atom  2       EATOM= -454.9988
 kinetic energy error for atom=    0.0006 (will be added to EATOM!!)
 PAW_PBE O 08Apr2002                    :
 energy of atom  3       EATOM= -432.3788
 kinetic energy error for atom=    0.0129 (will be added to EATOM!!)
 
 
 POSCAR: Ca12 Ru8 O28                            
  positions in direct lattice
  velocities in cartesian coordinates
 exchange correlation table for  LEXCH =       14
   RHO(1)=    0.500       N(1)  =     2000
   RHO(2)=  100.500       N(2)  =     4000
 


--------------------------------------------------------------------------------------------------------


 ion  position               nearest neighbor table
   1  0.734  0.189  1.000-  32 2.33  34 2.33  35 2.33  31 2.38  36 2.57  33 2.57  13 3.10  16 3.10
                            15 3.26  14 3.26
   2  0.266  0.689  1.000-  31 2.33  36 2.33  33 2.33  32 2.38  34 2.57  35 2.57  15 3.10  14 3.10
                            13 3.26  16 3.26
   3  0.234  0.189  0.500-  30 2.33  39 2.33  38 2.33  29 2.38  37 2.57  40 2.57  20 3.10  17 3.10
                            18 3.26  19 3.26
   4  0.766  0.689  0.500-  29 2.33  37 2.33  40 2.33  30 2.38  38 2.57  39 2.57  18 3.10  19 3.10
                            20 3.26  17 3.26
   5  0.243  0.308  0.311-  25 2.28  48 2.28  24 2.31  22 2.36  38 2.48  46 2.53  17 3.01  19 3.20
                            19 3.24
   6  0.757  0.808  0.689-  26 2.28  47 2.28  23 2.31  21 2.36  37 2.48  45 2.53  18 3.01  20 3.20
                            20 3.24
   7  0.757  0.808  0.311-  27 2.28  46 2.28  22 2.31  24 2.36  40 2.48  48 2.53  19 3.01  17 3.20
                            17 3.24
   8  0.243  0.308  0.689-  28 2.28  45 2.28  21 2.31  23 2.36  39 2.48  47 2.53  20 3.01  18 3.20
                            18 3.24
   9  0.743  0.308  0.811-  21 2.28  44 2.28  28 2.31  26 2.36  34 2.48  42 2.53  13 3.01  15 3.20
                            15 3.24
  10  0.257  0.808  0.189-  22 2.28  43 2.28  27 2.31  25 2.36  33 2.48  41 2.53  14 3.01  16 3.20
                            16 3.24
  11  0.257  0.808  0.811-  23 2.28  42 2.28  26 2.31  28 2.36  36 2.48  44 2.53  15 3.01  13 3.20
                            13 3.24
  12  0.743  0.308  0.189-  24 2.28  41 2.28  25 2.31  27 2.36  35 2.48  43 2.53  16 3.01  14 3.20
                            14 3.24
  13  0.752  0.751  0.901-  44 1.99  31 1.99  26 2.00  42 2.00  36 2.01  34 2.01   9 3.01   1 3.10
                            11 3.20  11 3.24   2 3.26
  14  0.248  0.251  0.099-  43 1.99  32 1.99  25 2.00  41 2.00  35 2.01  33 2.01  10 3.01   2 3.10
                            12 3.20  12 3.24   1 3.26
  15  0.248  0.251  0.901-  42 1.99  32 1.99  28 2.00  44 2.00  34 2.01  36 2.01  11 3.01   2 3.10
                             9 3.20   9 3.24   1 3.26
  16  0.752  0.751  0.099-  41 1.99  31 1.99  27 2.00  43 2.00  33 2.01  35 2.01  12 3.01   1 3.10
                            10 3.20  10 3.24   2 3.26
  17  0.252  0.751  0.401-  48 1.99  29 1.99  22 2.00  46 2.00  40 2.01  38 2.01   5 3.01   3 3.10
                             7 3.20   7 3.24   4 3.26
  18  0.748  0.251  0.599-  47 1.99  30 1.99  21 2.00  45 2.00  39 2.01  37 2.01   6 3.01   4 3.10
                             8 3.20   8 3.24   3 3.26
  19  0.748  0.251  0.401-  46 1.99  30 1.99  24 2.00  48 2.00  38 2.01  40 2.01   7 3.01   4 3.10
                             5 3.20   5 3.24   3 3.26
  20  0.252  0.751  0.599-  45 1.99  29 1.99  23 2.00  47 2.00  37 2.01  39 2.01   8 3.01   3 3.10
                             6 3.20   6 3.24   4 3.26
  21  0.822  0.229  0.699-  18 2.00   9 2.28   8 2.31   6 2.36
  22  0.178  0.729  0.301-  17 2.00  10 2.28   7 2.31   5 2.36
  23  0.178  0.729  0.699-  20 2.00  11 2.28   6 2.31   8 2.36
  24  0.822  0.229  0.301-  19 2.00  12 2.28   5 2.31   7 2.36
  25  0.322  0.229  0.199-  14 2.00   5 2.28  12 2.31  10 2.36
  26  0.678  0.729  0.801-  13 2.00   6 2.28  11 2.31   9 2.36
  27  0.678  0.729  0.199-  16 2.00   7 2.28  10 2.31  12 2.36
  28  0.322  0.229  0.801-  15 2.00   8 2.28   9 2.31  11 2.36
  29  0.341  0.773  0.500-  20 1.99  17 1.99   4 2.33   3 2.38
  30  0.659  0.273  0.500-  18 1.99  19 1.99   3 2.33   4 2.38
  31  0.841  0.773  0.000-  13 1.99  16 1.99   2 2.33   1 2.38
  32  0.159  0.273  0.000-  15 1.99  14 1.99   1 2.33   2 2.38
  33  0.446  0.949  0.080-  16 2.01  14 2.01   2 2.33  10 2.48   1 2.57
  34  0.554  0.449  0.920-  15 2.01  13 2.01   1 2.33   9 2.48   2 2.57
  35  0.554  0.449  0.080-  14 2.01  16 2.01   1 2.33  12 2.48   2 2.57
  36  0.446  0.949  0.920-  13 2.01  15 2.01   2 2.33  11 2.48   1 2.57
  37  0.946  0.949  0.580-  20 2.01  18 2.01   4 2.33   6 2.48   3 2.57
  38  0.054  0.449  0.420-  19 2.01  17 2.01   3 2.33   5 2.48   4 2.57
  39  0.054  0.449  0.580-  18 2.01  20 2.01   3 2.33   8 2.48   4 2.57
  40  0.946  0.949  0.420-  17 2.01  19 2.01   4 2.33   7 2.48   3 2.57
  41  0.949  0.047  0.118-  16 1.99  14 2.00  12 2.28  10 2.53
  42  0.051  0.547  0.882-  15 1.99  13 2.00  11 2.28   9 2.53
  43  0.051  0.547  0.118-  14 1.99  16 2.00  10 2.28  12 2.53
  44  0.949  0.047  0.882-  13 1.99  15 2.00   9 2.28  11 2.53
  45  0.449  0.047  0.618-  20 1.99  18 2.00   8 2.28   6 2.53
  46  0.551  0.547  0.382-  19 1.99  17 2.00   7 2.28   5 2.53
  47  0.551  0.547  0.618-  18 1.99  20 2.00   6 2.28   8 2.53
  48  0.449  0.047  0.382-  17 1.99  19 2.00   5 2.28   7 2.53
 

IMPORTANT INFORMATION: All symmetrisations will be switched off!
NOSYMM: (Re-)initialisation of all symmetry stuff for point group C_1.

 
 
 KPOINTS: pymatgen v2019.10.4 with grid density = 

Automatic generation of k-mesh.
Space group operators:
 irot       det(A)        alpha          n_x          n_y          n_z        tau_x        tau_y        tau_z
    1     1.000000     0.000000     1.000000     0.000000     0.000000     0.000000     0.000000     0.000000
 
 Subroutine IBZKPT returns following result:
 ===========================================
 
 Found     75 irreducible k-points:
 
 Following reciprocal coordinates:
            Coordinates               Weight
  0.000000  0.000000  0.000000      1.000000
  0.200000  0.000000  0.000000      1.000000
  0.400000  0.000000  0.000000      1.000000
 -0.400000  0.000000  0.000000      1.000000
 -0.200000  0.000000  0.000000      1.000000
  0.000000  0.200000  0.000000      1.000000
  0.200000  0.200000  0.000000      1.000000
  0.400000  0.200000  0.000000      1.000000
 -0.400000  0.200000  0.000000      1.000000
 -0.200000  0.200000  0.000000      1.000000
  0.000000  0.400000  0.000000      1.000000
  0.200000  0.400000  0.000000      1.000000
  0.400000  0.400000  0.000000      1.000000
 -0.400000  0.400000  0.000000      1.000000
 -0.200000  0.400000  0.000000      1.000000
  0.000000 -0.400000  0.000000      1.000000
  0.200000 -0.400000  0.000000      1.000000
  0.400000 -0.400000  0.000000      1.000000
 -0.400000 -0.400000  0.000000      1.000000
 -0.200000 -0.400000  0.000000      1.000000
  0.000000 -0.200000  0.000000      1.000000
  0.200000 -0.200000  0.000000      1.000000
  0.400000 -0.200000  0.000000      1.000000
 -0.400000 -0.200000  0.000000      1.000000
 -0.200000 -0.200000  0.000000      1.000000
  0.000000  0.000000  0.333333      1.000000
  0.200000  0.000000  0.333333      1.000000
  0.400000  0.000000  0.333333      1.000000
 -0.400000  0.000000  0.333333      1.000000
 -0.200000  0.000000  0.333333      1.000000
  0.000000  0.200000  0.333333      1.000000
  0.200000  0.200000  0.333333      1.000000
  0.400000  0.200000  0.333333      1.000000
 -0.400000  0.200000  0.333333      1.000000
 -0.200000  0.200000  0.333333      1.000000
  0.000000  0.400000  0.333333      1.000000
  0.200000  0.400000  0.333333      1.000000
  0.400000  0.400000  0.333333      1.000000
 -0.400000  0.400000  0.333333      1.000000
 -0.200000  0.400000  0.333333      1.000000
  0.000000 -0.400000  0.333333      1.000000
  0.200000 -0.400000  0.333333      1.000000
  0.400000 -0.400000  0.333333      1.000000
 -0.400000 -0.400000  0.333333      1.000000
 -0.200000 -0.400000  0.333333      1.000000
  0.000000 -0.200000  0.333333      1.000000
  0.200000 -0.200000  0.333333      1.000000
  0.400000 -0.200000  0.333333      1.000000
 -0.400000 -0.200000  0.333333      1.000000
 -0.200000 -0.200000  0.333333      1.000000
  0.000000  0.000000 -0.333333      1.000000
  0.200000  0.000000 -0.333333      1.000000
  0.400000  0.000000 -0.333333      1.000000
 -0.400000  0.000000 -0.333333      1.000000
 -0.200000  0.000000 -0.333333      1.000000
  0.000000  0.200000 -0.333333      1.000000
  0.200000  0.200000 -0.333333      1.000000
  0.400000  0.200000 -0.333333      1.000000
 -0.400000  0.200000 -0.333333      1.000000
 -0.200000  0.200000 -0.333333      1.000000
  0.000000  0.400000 -0.333333      1.000000
  0.200000  0.400000 -0.333333      1.000000
  0.400000  0.400000 -0.333333      1.000000
 -0.400000  0.400000 -0.333333      1.000000
 -0.200000  0.400000 -0.333333      1.000000
  0.000000 -0.400000 -0.333333      1.000000
  0.200000 -0.400000 -0.333333      1.000000
  0.400000 -0.400000 -0.333333      1.000000
 -0.400000 -0.400000 -0.333333      1.000000
 -0.200000 -0.400000 -0.333333      1.000000
  0.000000 -0.200000 -0.333333      1.000000
  0.200000 -0.200000 -0.333333      1.000000
  0.400000 -0.200000 -0.333333      1.000000
 -0.400000 -0.200000 -0.333333      1.000000
 -0.200000 -0.200000 -0.333333      1.000000
 
 Following cartesian coordinates:
            Coordinates               Weight
  0.000000  0.000000  0.000000      1.000000
  0.037260  0.000000  0.000000      1.000000
  0.074520  0.000000  0.000000      1.000000
 -0.074520  0.000000  0.000000      1.000000
 -0.037260  0.000000  0.000000      1.000000
  0.000000  0.036130  0.000000      1.000000
  0.037260  0.036130  0.000000      1.000000
  0.074520  0.036130  0.000000      1.000000
 -0.074520  0.036130  0.000000      1.000000
 -0.037260  0.036130  0.000000      1.000000
  0.000000  0.072259  0.000000      1.000000
  0.037260  0.072259  0.000000      1.000000
  0.074520  0.072259  0.000000      1.000000
 -0.074520  0.072259  0.000000      1.000000
 -0.037260  0.072259  0.000000      1.000000
  0.000000 -0.072259  0.000000      1.000000
  0.037260 -0.072259  0.000000      1.000000
  0.074520 -0.072259  0.000000      1.000000
 -0.074520 -0.072259  0.000000      1.000000
 -0.037260 -0.072259  0.000000      1.000000
  0.000000 -0.036130  0.000000      1.000000
  0.037260 -0.036130  0.000000      1.000000
  0.074520 -0.036130  0.000000      1.000000
 -0.074520 -0.036130  0.000000      1.000000
 -0.037260 -0.036130  0.000000      1.000000
  0.000000  0.000000  0.017075      1.000000
  0.037260  0.000000  0.017075      1.000000
  0.074520  0.000000  0.017075      1.000000
 -0.074520  0.000000  0.017075      1.000000
 -0.037260  0.000000  0.017075      1.000000
  0.000000  0.036130  0.017075      1.000000
  0.037260  0.036130  0.017075      1.000000
  0.074520  0.036130  0.017075      1.000000
 -0.074520  0.036130  0.017075      1.000000
 -0.037260  0.036130  0.017075      1.000000
  0.000000  0.072259  0.017075      1.000000
  0.037260  0.072259  0.017075      1.000000
  0.074520  0.072259  0.017075      1.000000
 -0.074520  0.072259  0.017075      1.000000
 -0.037260  0.072259  0.017075      1.000000
  0.000000 -0.072259  0.017075      1.000000
  0.037260 -0.072259  0.017075      1.000000
  0.074520 -0.072259  0.017075      1.000000
 -0.074520 -0.072259  0.017075      1.000000
 -0.037260 -0.072259  0.017075      1.000000
  0.000000 -0.036130  0.017075      1.000000
  0.037260 -0.036130  0.017075      1.000000
  0.074520 -0.036130  0.017075      1.000000
 -0.074520 -0.036130  0.017075      1.000000
 -0.037260 -0.036130  0.017075      1.000000
  0.000000  0.000000 -0.017075      1.000000
  0.037260  0.000000 -0.017075      1.000000
  0.074520  0.000000 -0.017075      1.000000
 -0.074520  0.000000 -0.017075      1.000000
 -0.037260  0.000000 -0.017075      1.000000
  0.000000  0.036130 -0.017075      1.000000
  0.037260  0.036130 -0.017075      1.000000
  0.074520  0.036130 -0.017075      1.000000
 -0.074520  0.036130 -0.017075      1.000000
 -0.037260  0.036130 -0.017075      1.000000
  0.000000  0.072259 -0.017075      1.000000
  0.037260  0.072259 -0.017075      1.000000
  0.074520  0.072259 -0.017075      1.000000
 -0.074520  0.072259 -0.017075      1.000000
 -0.037260  0.072259 -0.017075      1.000000
  0.000000 -0.072259 -0.017075      1.000000
  0.037260 -0.072259 -0.017075      1.000000
  0.074520 -0.072259 -0.017075      1.000000
 -0.074520 -0.072259 -0.017075      1.000000
 -0.037260 -0.072259 -0.017075      1.000000
  0.000000 -0.036130 -0.017075      1.000000
  0.037260 -0.036130 -0.017075      1.000000
  0.074520 -0.036130 -0.017075      1.000000
 -0.074520 -0.036130 -0.017075      1.000000
 -0.037260 -0.036130 -0.017075      1.000000
 
 TETIRR: Found    450 inequivalent tetrahedra from      450


--------------------------------------------------------------------------------------------------------




 Dimension of arrays:
   k-points           NKPTS =     75   k-points in BZ     NKDIM =     75   number of bands    NBANDS=    480
   number of dos      NEDOS =    301   number of ions     NIONS =     48
   non local maximal  LDIM  =      6   non local SUM 2l+1 LMDIM =     18
   total plane-waves  NPLWV = 373248
   max r-space proj   IRMAX =   9130   max aug-charges    IRDMAX=  43718
   dimension x,y,z NGX =    48 NGY =   48 NGZ =  162
   dimension x,y,z NGXF=    96 NGYF=   96 NGZF=  324
   support grid    NGXF=    96 NGYF=   96 NGZF=  324
   ions per type =              12   8  28
 NGX,Y,Z   is equivalent  to a cutoff of  14.87, 14.42, 13.80 a.u.
 NGXF,Y,Z  is equivalent  to a cutoff of  29.73, 28.83, 27.59 a.u.


 I would recommend the setting:
   dimension x,y,z NGX =    45 NGY =   46 NGZ =  162
 SYSTEM =  "CRO_a"                                 
 POSCAR =  Ca12 Ru8 O28                            

 Startparameter for this run:
   NWRITE =      2    write-flag & timer
   PREC   = accura    normal or accurate (medium, high low for compatibility)
   ISTART =      0    job   : 0-new  1-cont  2-samecut
   ICHARG =      2    charge: 1-file 2-atom 10-const
   ISPIN  =      1    spin polarized calculation?
   LNONCOLLINEAR =      T non collinear calculations
   LSORBIT =      T    spin-orbit coupling
   INIWAV =      1    electr: 0-lowe 1-rand  2-diag
   LASPH  =      F    aspherical Exc in radial PAW
   METAGGA=      F    non-selfconsistent MetaGGA calc.

 Electronic Relaxation 1
   ENCUT  =  650.0 eV  47.77 Ry    6.91 a.u.  11.16 11.51 40.58*2*pi/ulx,y,z
   ENINI  =  650.0     initial cutoff
   ENAUG  =  605.4 eV  augmentation charge cutoff
   NELM   =    199;   NELMIN=  2; NELMDL= -5     # of ELM steps 
   EDIFF  = 0.1E-07   stopping-criterion for ELM
   LREAL  =      T    real-space projection
   NLSPLINE    = F    spline interpolate recip. space projectors
   LCOMPAT=      F    compatible to vasp.4.4
   GGA_COMPAT  = T    GGA compatible to vasp.4.4-vasp.4.6
   LMAXPAW     = -100 max onsite density
   LMAXMIX     =    4 max onsite mixed and CHGCAR
   VOSKOWN=      0    Vosko Wilk Nusair interpolation
   ROPT   =   -0.00025  -0.00025  -0.00025
 Ionic relaxation
   EDIFFG = -.1E-03   stopping-criterion for IOM
   NSW    =      0    number of steps for IOM
   NBLOCK =      1;   KBLOCK =      1    inner block; outer block 
   IBRION =     -1    ionic relax: 0-MD 1-quasi-New 2-CG
   NFREE  =      0    steps in history (QN), initial steepest desc. (CG)
   ISIF   =      2    stress and relaxation
   IWAVPR =     10    prediction:  0-non 1-charg 2-wave 3-comb
   ISYM   =     -1    0-nonsym 1-usesym 2-fastsym
   LCORR  =      T    Harris-Foulkes like correction to forces

   POTIM  = 0.5000    time-step for ionic-motion
   TEIN   =    0.0    initial temperature
   TEBEG  =    0.0;   TEEND  =   0.0 temperature during run
   SMASS  =  -3.00    Nose mass-parameter (am)
   estimated Nose-frequenzy (Omega)   =  0.10E-29 period in steps =****** mass=  -0.658E-27a.u.
   SCALEE = 1.0000    scale energy and forces
   NPACO  =    256;   APACO  = 16.0  distance and # of slots for P.C.
   PSTRESS=    0.0 pullay stress

  Mass of Ions in am
   POMASS =  40.08101.07 16.00
  Ionic Valenz
   ZVAL   =  10.00  8.00  6.00
  Atomic Wigner-Seitz radii
   RWIGS  =  -1.00 -1.00 -1.00
  virtual crystal weights 
   VCA    =   1.00  1.00  1.00
   NELECT =     352.0000    total number of electrons
   NUPDOWN=      -1.0000    fix difference up-down

 DOS related values:
   EMIN   =  10.00;   EMAX   =-10.00  energy-range for DOS
   EFERMI =   0.00
   ISMEAR =    -5;   SIGMA  =   0.02  broadening in eV -4-tet -1-fermi 0-gaus

 Electronic relaxation 2 (details)
   IALGO  =     38    algorithm
   LDIAG  =      T    sub-space diagonalisation (order eigenvalues)
   LSUBROT=      F    optimize rotation matrix (better conditioning)
   TURBO    =      0    0=normal 1=particle mesh
   IRESTART =      0    0=no restart 2=restart with 2 vectors
   NREBOOT  =      0    no. of reboots
   NMIN     =      0    reboot dimension
   EREF     =   0.00    reference energy to select bands
   IMIX   =      4    mixing-type and parameters
     AMIX     =   0.20;   BMIX     =  0.00
     AMIX_MAG =   0.80;   BMIX_MAG =  0.00
     AMIN     =   0.10
     WC   =   100.;   INIMIX=   1;  MIXPRE=   1;  MAXMIX= -45

 Intra band minimization:
   WEIMIN = 0.0000     energy-eigenvalue tresh-hold
   EBREAK =  0.52E-11  absolut break condition
   DEPER  =   0.30     relativ break condition  

   TIME   =   0.40     timestep for ELM

  volume/ion in A,a.u.               =      12.08        81.55
  Fermi-wavevector in a.u.,A,eV,Ry     =   1.386014  2.619186 26.137252  1.921034
  Thomas-Fermi vector in A             =   2.510369
 
 Write flags
   LWAVE  =      T    write WAVECAR
   LCHARG =      T    write CHGCAR
   LVTOT  =      F    write LOCPOT, total local potential
   LVHAR  =      F    write LOCPOT, Hartree potential only
   LELF   =      F    write electronic localiz. function (ELF)
   LORBIT =      0    0 simple, 1 ext, 2 COOP (PROOUT)


 Dipole corrections
   LMONO  =      F    monopole corrections only (constant potential shift)
   LDIPOL =      F    correct potential (dipole corrections)
   IDIPOL =      0    1-x, 2-y, 3-z, 4-all directions 
   EPSILON=  1.0000000 bulk dielectric constant

 LDA+U is selected, type is set to LDAUTYPE =  2
   angular momentum for each species LDAUL =     0    2    0
   U (eV)           for each species LDAUU =   0.0  1.2  0.0
   J (eV)           for each species LDAUJ =   0.0  0.0  0.0
 Exchange correlation treatment:
   GGA     =    PS    GGA type
   LEXCH   =    14    internal setting for exchange type
   VOSKOWN=      0    Vosko Wilk Nusair interpolation
   LHFCALC =     F    Hartree Fock is set to
   LHFONE  =     F    Hartree Fock one center treatment
   AEXX    =    0.0000 exact exchange contribution

 Linear response parameters
   LEPSILON=     F    determine dielectric tensor
   LRPA    =     F    only Hartree local field effects (RPA)
   LNABLA  =     F    use nabla operator in PAW spheres
   LVEL    =     F    velocity operator in full k-point grid
   LINTERFAST=   F  fast interpolation
   KINTER  =     0    interpolate to denser k-point grid
   CSHIFT  =0.1000    complex shift for real part using Kramers Kronig
   OMEGAMAX=  -1.0    maximum frequency
   DEG_THRESHOLD= 0.2000000E-02 threshold for treating states as degnerate
   RTIME   =    0.100 relaxation time in fs

 Orbital magnetization related:
   ORBITALMAG=     F  switch on orbital magnetization
   LCHIMAG   =     F  perturbation theory with respect to B field
   DQ        =  0.001000  dq finite difference perturbation B field



--------------------------------------------------------------------------------------------------------


 Static calculation
 charge density and potential will be updated during run
 non collinear spin polarized calculation
 Variant of blocked Davidson
 Davidson routine will perform the subspace rotation
 perform sub-space diagonalisation
    after iterative eigenvector-optimisation
 modified Broyden-mixing scheme, WC =      100.0
 initial mixing is a Kerker type mixing with AMIX =  0.2000 and BMIX =      0.0000
 Hartree-type preconditioning will be used
 using additional bands          304
 real space projection scheme for non local part
 use partial core corrections
 calculate Harris-corrections to forces 
   (improved forces if not selfconsistent)
 use gradient corrections 
 use of overlap-Matrix (Vanderbilt PP)
 Fermi weights with tetrahedron method with Bloechl corrections


--------------------------------------------------------------------------------------------------------


  energy-cutoff  :      650.00
  volume of cell :      580.05
      direct lattice vectors                 reciprocal lattice vectors
     5.367720000  0.000000000  0.000000000     0.186298838  0.000000000  0.000000000
     0.000000000  5.535620000  0.000000000     0.000000000  0.180648238  0.000000000
     0.000000000  0.000000000 19.521290000     0.000000000  0.000000000  0.051226123

  length of vectors
     5.367720000  5.535620000 19.521290000     0.186298838  0.180648238  0.051226123


 
 k-points in units of 2pi/SCALE and weight: pymatgen v2019.10.4 with grid density = 
   0.00000000  0.00000000  0.00000000       0.013
   0.03725977  0.00000000  0.00000000       0.013
   0.07451954  0.00000000  0.00000000       0.013
  -0.07451954  0.00000000  0.00000000       0.013
  -0.03725977  0.00000000  0.00000000       0.013
   0.00000000  0.03612965  0.00000000       0.013
   0.03725977  0.03612965  0.00000000       0.013
   0.07451954  0.03612965  0.00000000       0.013
  -0.07451954  0.03612965  0.00000000       0.013
  -0.03725977  0.03612965  0.00000000       0.013
   0.00000000  0.07225930  0.00000000       0.013
   0.03725977  0.07225930  0.00000000       0.013
   0.07451954  0.07225930  0.00000000       0.013
  -0.07451954  0.07225930  0.00000000       0.013
  -0.03725977  0.07225930  0.00000000       0.013
   0.00000000 -0.07225930  0.00000000       0.013
   0.03725977 -0.07225930  0.00000000       0.013
   0.07451954 -0.07225930  0.00000000       0.013
  -0.07451954 -0.07225930  0.00000000       0.013
  -0.03725977 -0.07225930  0.00000000       0.013
   0.00000000 -0.03612965  0.00000000       0.013
   0.03725977 -0.03612965  0.00000000       0.013
   0.07451954 -0.03612965  0.00000000       0.013
  -0.07451954 -0.03612965  0.00000000       0.013
  -0.03725977 -0.03612965  0.00000000       0.013
   0.00000000  0.00000000  0.01707537       0.013
   0.03725977  0.00000000  0.01707537       0.013
   0.07451954  0.00000000  0.01707537       0.013
  -0.07451954  0.00000000  0.01707537       0.013
  -0.03725977  0.00000000  0.01707537       0.013
   0.00000000  0.03612965  0.01707537       0.013
   0.03725977  0.03612965  0.01707537       0.013
   0.07451954  0.03612965  0.01707537       0.013
  -0.07451954  0.03612965  0.01707537       0.013
  -0.03725977  0.03612965  0.01707537       0.013
   0.00000000  0.07225930  0.01707537       0.013
   0.03725977  0.07225930  0.01707537       0.013
   0.07451954  0.07225930  0.01707537       0.013
  -0.07451954  0.07225930  0.01707537       0.013
  -0.03725977  0.07225930  0.01707537       0.013
   0.00000000 -0.07225930  0.01707537       0.013
   0.03725977 -0.07225930  0.01707537       0.013
   0.07451954 -0.07225930  0.01707537       0.013
  -0.07451954 -0.07225930  0.01707537       0.013
  -0.03725977 -0.07225930  0.01707537       0.013
   0.00000000 -0.03612965  0.01707537       0.013
   0.03725977 -0.03612965  0.01707537       0.013
   0.07451954 -0.03612965  0.01707537       0.013
  -0.07451954 -0.03612965  0.01707537       0.013
  -0.03725977 -0.03612965  0.01707537       0.013
   0.00000000  0.00000000 -0.01707537       0.013
   0.03725977  0.00000000 -0.01707537       0.013
   0.07451954  0.00000000 -0.01707537       0.013
  -0.07451954  0.00000000 -0.01707537       0.013
  -0.03725977  0.00000000 -0.01707537       0.013
   0.00000000  0.03612965 -0.01707537       0.013
   0.03725977  0.03612965 -0.01707537       0.013
   0.07451954  0.03612965 -0.01707537       0.013
  -0.07451954  0.03612965 -0.01707537       0.013
  -0.03725977  0.03612965 -0.01707537       0.013
   0.00000000  0.07225930 -0.01707537       0.013
   0.03725977  0.07225930 -0.01707537       0.013
   0.07451954  0.07225930 -0.01707537       0.013
  -0.07451954  0.07225930 -0.01707537       0.013
  -0.03725977  0.07225930 -0.01707537       0.013
   0.00000000 -0.07225930 -0.01707537       0.013
   0.03725977 -0.07225930 -0.01707537       0.013
   0.07451954 -0.07225930 -0.01707537       0.013
  -0.07451954 -0.07225930 -0.01707537       0.013
  -0.03725977 -0.07225930 -0.01707537       0.013
   0.00000000 -0.03612965 -0.01707537       0.013
   0.03725977 -0.03612965 -0.01707537       0.013
   0.07451954 -0.03612965 -0.01707537       0.013
  -0.07451954 -0.03612965 -0.01707537       0.013
  -0.03725977 -0.03612965 -0.01707537       0.013
 
 k-points in reciprocal lattice and weights: pymatgen v2019.10.4 with grid density = 
   0.00000000  0.00000000  0.00000000       0.013
   0.20000000  0.00000000  0.00000000       0.013
   0.40000000  0.00000000  0.00000000       0.013
  -0.40000000  0.00000000  0.00000000       0.013
  -0.20000000  0.00000000  0.00000000       0.013
   0.00000000  0.20000000  0.00000000       0.013
   0.20000000  0.20000000  0.00000000       0.013
   0.40000000  0.20000000  0.00000000       0.013
  -0.40000000  0.20000000  0.00000000       0.013
  -0.20000000  0.20000000  0.00000000       0.013
   0.00000000  0.40000000  0.00000000       0.013
   0.20000000  0.40000000  0.00000000       0.013
   0.40000000  0.40000000  0.00000000       0.013
  -0.40000000  0.40000000  0.00000000       0.013
  -0.20000000  0.40000000  0.00000000       0.013
   0.00000000 -0.40000000  0.00000000       0.013
   0.20000000 -0.40000000  0.00000000       0.013
   0.40000000 -0.40000000  0.00000000       0.013
  -0.40000000 -0.40000000  0.00000000       0.013
  -0.20000000 -0.40000000  0.00000000       0.013
   0.00000000 -0.20000000  0.00000000       0.013
   0.20000000 -0.20000000  0.00000000       0.013
   0.40000000 -0.20000000  0.00000000       0.013
  -0.40000000 -0.20000000  0.00000000       0.013
  -0.20000000 -0.20000000  0.00000000       0.013
   0.00000000  0.00000000  0.33333333       0.013
   0.20000000  0.00000000  0.33333333       0.013
   0.40000000  0.00000000  0.33333333       0.013
  -0.40000000  0.00000000  0.33333333       0.013
  -0.20000000  0.00000000  0.33333333       0.013
   0.00000000  0.20000000  0.33333333       0.013
   0.20000000  0.20000000  0.33333333       0.013
   0.40000000  0.20000000  0.33333333       0.013
  -0.40000000  0.20000000  0.33333333       0.013
  -0.20000000  0.20000000  0.33333333       0.013
   0.00000000  0.40000000  0.33333333       0.013
   0.20000000  0.40000000  0.33333333       0.013
   0.40000000  0.40000000  0.33333333       0.013
  -0.40000000  0.40000000  0.33333333       0.013
  -0.20000000  0.40000000  0.33333333       0.013
   0.00000000 -0.40000000  0.33333333       0.013
   0.20000000 -0.40000000  0.33333333       0.013
   0.40000000 -0.40000000  0.33333333       0.013
  -0.40000000 -0.40000000  0.33333333       0.013
  -0.20000000 -0.40000000  0.33333333       0.013
   0.00000000 -0.20000000  0.33333333       0.013
   0.20000000 -0.20000000  0.33333333       0.013
   0.40000000 -0.20000000  0.33333333       0.013
  -0.40000000 -0.20000000  0.33333333       0.013
  -0.20000000 -0.20000000  0.33333333       0.013
   0.00000000  0.00000000 -0.33333333       0.013
   0.20000000  0.00000000 -0.33333333       0.013
   0.40000000  0.00000000 -0.33333333       0.013
  -0.40000000  0.00000000 -0.33333333       0.013
  -0.20000000  0.00000000 -0.33333333       0.013
   0.00000000  0.20000000 -0.33333333       0.013
   0.20000000  0.20000000 -0.33333333       0.013
   0.40000000  0.20000000 -0.33333333       0.013
  -0.40000000  0.20000000 -0.33333333       0.013
  -0.20000000  0.20000000 -0.33333333       0.013
   0.00000000  0.40000000 -0.33333333       0.013
   0.20000000  0.40000000 -0.33333333       0.013
   0.40000000  0.40000000 -0.33333333       0.013
  -0.40000000  0.40000000 -0.33333333       0.013
  -0.20000000  0.40000000 -0.33333333       0.013
   0.00000000 -0.40000000 -0.33333333       0.013
   0.20000000 -0.40000000 -0.33333333       0.013
   0.40000000 -0.40000000 -0.33333333       0.013
  -0.40000000 -0.40000000 -0.33333333       0.013
  -0.20000000 -0.40000000 -0.33333333       0.013
   0.00000000 -0.20000000 -0.33333333       0.013
   0.20000000 -0.20000000 -0.33333333       0.013
   0.40000000 -0.20000000 -0.33333333       0.013
  -0.40000000 -0.20000000 -0.33333333       0.013
  -0.20000000 -0.20000000 -0.33333333       0.013
 
 position of ions in fractional coordinates (direct lattice) 
   0.73379664  0.18932165  0.99999979
   0.26620353  0.68932165  0.99999979
   0.23379638  0.18932211  0.49999998
   0.76620331  0.68932213  0.50000002
   0.24304822  0.30815252  0.31129394
   0.75695175  0.80815280  0.68870607
   0.75695145  0.80815244  0.31129395
   0.24304841  0.30815282  0.68870607
   0.74304829  0.30815310  0.81129405
   0.25695128  0.80815186  0.18870614
   0.25695190  0.80815308  0.81129406
   0.74304876  0.30815188  0.18870614
   0.75202484  0.75050995  0.90117639
   0.24797561  0.25050944  0.09882369
   0.24797535  0.25050995  0.90117639
   0.75202454  0.75050944  0.09882369
   0.25202445  0.75050988  0.40117632
   0.74797536  0.25050997  0.59882361
   0.74797516  0.25050989  0.40117631
   0.25202466  0.75050995  0.59882362
   0.82246480  0.22871071  0.69885647
   0.17753500  0.72871044  0.30114337
   0.17753532  0.72871068  0.69885648
   0.82246475  0.22871044  0.30114340
   0.32246475  0.22871011  0.19885666
   0.67753515  0.72871041  0.80114355
   0.67753530  0.72871009  0.19885666
   0.32246502  0.22871043  0.80114355
   0.34137818  0.77255610  0.49999998
   0.65862170  0.27255605  0.50000000
   0.84137850  0.77255570  0.00000003
   0.15862168  0.27255569  0.00000003
   0.44566722  0.94871138  0.08004394
   0.55433340  0.44871147  0.91995620
   0.55433293  0.44871139  0.08004394
   0.44566678  0.94871146  0.91995620
   0.94566717  0.94871183  0.58004388
   0.05433269  0.44871193  0.41995608
   0.05433288  0.44871186  0.58004389
   0.94566698  0.94871193  0.41995606
   0.94855417  0.04712155  0.11790425
   0.05144673  0.54712254  0.88209577
   0.05144594  0.54712154  0.11790424
   0.94855342  0.04712255  0.88209577
   0.44855375  0.04712240  0.61790408
   0.55144600  0.54712220  0.38209571
   0.55144627  0.54712251  0.61790407
   0.44855360  0.04712215  0.38209573
 
 position of ions in cartesian coordinates  (Angst):
   3.93881488  1.04801270 19.52128591
   1.42890599  3.81582270 19.52128585
   1.25495349  1.04801525  9.76064458
   4.11276485  3.81582537  9.76064530
   1.30461481  1.70581523  6.07685925
   4.06310507  4.47362680 13.44443089
   4.06310341  4.47362479  6.07685950
   1.30461584  1.70581690 13.44443090
   3.98847518  1.70581845 15.83750649
   1.37924255  4.47362162  3.68378724
   1.37924587  4.47362833 15.83750668
   3.98847771  1.70581169  3.68378730
   4.03665877  4.15453788 17.59212568
   1.33106363  1.38672505  1.92916596
   1.33106225  1.38672787 17.59212571
   4.03665717  4.15453509  1.92916598
   1.35279671  4.15453750  7.83147932
   4.01492229  1.38672802 11.68980934
   4.01492123  1.38672756  7.83147910
   1.35279783  4.15453791 11.68980952
   4.41476074  1.26605560 13.64257985
   0.95295816  4.03386409  5.87870702
   0.95295988  4.03386542 13.64258004
   4.41476050  1.26605409  5.87870772
   1.73090051  1.26605224  3.88193858
   3.63681899  4.03386389 15.63935552
   3.63681978  4.03386213  3.88193860
   1.73090194  1.26605401 15.63935560
   1.83242250  4.27657698  9.76064469
   3.53529689  1.50876673  9.76064501
   4.51628418  4.27657480  0.00000055
   0.85143679  1.50876472  0.00000052
   2.39221687  5.25170572  1.56256090
   2.97550647  2.48389618 17.95873173
   2.97550397  2.48389574  1.56256090
   2.39221447  5.25170611 17.95873170
   5.07607656  5.25170820 11.32320484
   0.29164268  2.48389871  8.19808438
   0.29164370  2.48389833 11.32320498
   5.07607559  5.25170873  8.19808394
   5.09157320  0.26084699  2.30164298
   0.27615163  3.02866245 17.21964728
   0.27614742  3.02865693  2.30164294
   5.09156914  0.26085255 17.21964730
   2.40771091  0.26085168 12.06228477
   2.96000770  3.02866058  7.45900115
   2.96000919  3.02866229 12.06228448
   2.40771013  0.26085030  7.45900153
 
 Euler angles ALPHA=     1.5707963  BETA=     1.5707963

 transformation matrix from SAXIS to cartesian coordinates
 ---------------------------------------------------------
     0.0000000 m_x    -1.0000000 m_y     0.0000000 m_z
     0.0000000 m_x     0.0000000 m_y     1.0000000 m_z
    -1.0000000 m_x     0.0000000 m_y     0.0000000 m_z

 transformation matrix from cartesian coordinates to SAXIS
 ---------------------------------------------------------
     0.0000000 m_x     0.0000000 m_y    -1.0000000 m_z
    -1.0000000 m_x     0.0000000 m_y     0.0000000 m_z
     0.0000000 m_x     1.0000000 m_y     0.0000000 m_z




--------------------------------------------------------------------------------------------------------


 k-point  1 :   0.0000 0.0000 0.0000  plane waves:   43610
 k-point  2 :   0.2000 0.0000 0.0000  plane waves:   43724
 k-point  3 :   0.4000 0.0000 0.0000  plane waves:   43716
 k-point  4 :  -0.4000 0.0000 0.0000  plane waves:   43716
 k-point  5 :  -0.2000 0.0000 0.0000  plane waves:   43724
 k-point  6 :   0.0000 0.2000 0.0000  plane waves:   43570
 k-point  7 :   0.2000 0.2000 0.0000  plane waves:   43634
 k-point  8 :   0.4000 0.2000 0.0000  plane waves:   43738
 k-point  9 :  -0.4000 0.2000 0.0000  plane waves:   43738
 k-point 10 :  -0.2000 0.2000 0.0000  plane waves:   43634
 k-point 11 :   0.0000 0.4000 0.0000  plane waves:   43658
 k-point 12 :   0.2000 0.4000 0.0000  plane waves:   43576
 k-point 13 :   0.4000 0.4000 0.0000  plane waves:   43610
 k-point 14 :  -0.4000 0.4000 0.0000  plane waves:   43610
 k-point 15 :  -0.2000 0.4000 0.0000  plane waves:   43576
 k-point 16 :   0.0000-0.4000 0.0000  plane waves:   43658
 k-point 17 :   0.2000-0.4000 0.0000  plane waves:   43576
 k-point 18 :   0.4000-0.4000 0.0000  plane waves:   43610
 k-point 19 :  -0.4000-0.4000 0.0000  plane waves:   43610
 k-point 20 :  -0.2000-0.4000 0.0000  plane waves:   43576
 k-point 21 :   0.0000-0.2000 0.0000  plane waves:   43570
 k-point 22 :   0.2000-0.2000 0.0000  plane waves:   43634
 k-point 23 :   0.4000-0.2000 0.0000  plane waves:   43738
 k-point 24 :  -0.4000-0.2000 0.0000  plane waves:   43738
 k-point 25 :  -0.2000-0.2000 0.0000  plane waves:   43634
 k-point 26 :   0.0000 0.0000 0.3333  plane waves:   43638
 k-point 27 :   0.2000 0.0000 0.3333  plane waves:   43672
 k-point 28 :   0.4000 0.0000 0.3333  plane waves:   43756
 k-point 29 :  -0.4000 0.0000 0.3333  plane waves:   43756
 k-point 30 :  -0.2000 0.0000 0.3333  plane waves:   43672
 k-point 31 :   0.0000 0.2000 0.3333  plane waves:   43626
 k-point 32 :   0.2000 0.2000 0.3333  plane waves:   43638
 k-point 33 :   0.4000 0.2000 0.3333  plane waves:   43724
 k-point 34 :  -0.4000 0.2000 0.3333  plane waves:   43724
 k-point 35 :  -0.2000 0.2000 0.3333  plane waves:   43638
 k-point 36 :   0.0000 0.4000 0.3333  plane waves:   43682
 k-point 37 :   0.2000 0.4000 0.3333  plane waves:   43606
 k-point 38 :   0.4000 0.4000 0.3333  plane waves:   43584
 k-point 39 :  -0.4000 0.4000 0.3333  plane waves:   43584
 k-point 40 :  -0.2000 0.4000 0.3333  plane waves:   43606
 k-point 41 :   0.0000-0.4000 0.3333  plane waves:   43682
 k-point 42 :   0.2000-0.4000 0.3333  plane waves:   43606
 k-point 43 :   0.4000-0.4000 0.3333  plane waves:   43584
 k-point 44 :  -0.4000-0.4000 0.3333  plane waves:   43584
 k-point 45 :  -0.2000-0.4000 0.3333  plane waves:   43606
 k-point 46 :   0.0000-0.2000 0.3333  plane waves:   43626
 k-point 47 :   0.2000-0.2000 0.3333  plane waves:   43638
 k-point 48 :   0.4000-0.2000 0.3333  plane waves:   43724
 k-point 49 :  -0.4000-0.2000 0.3333  plane waves:   43724
 k-point 50 :  -0.2000-0.2000 0.3333  plane waves:   43638
 k-point 51 :   0.0000 0.0000-0.3333  plane waves:   43638
 k-point 52 :   0.2000 0.0000-0.3333  plane waves:   43672
 k-point 53 :   0.4000 0.0000-0.3333  plane waves:   43756
 k-point 54 :  -0.4000 0.0000-0.3333  plane waves:   43756
 k-point 55 :  -0.2000 0.0000-0.3333  plane waves:   43672
 k-point 56 :   0.0000 0.2000-0.3333  plane waves:   43626
 k-point 57 :   0.2000 0.2000-0.3333  plane waves:   43638
 k-point 58 :   0.4000 0.2000-0.3333  plane waves:   43724
 k-point 59 :  -0.4000 0.2000-0.3333  plane waves:   43724
 k-point 60 :  -0.2000 0.2000-0.3333  plane waves:   43638
 k-point 61 :   0.0000 0.4000-0.3333  plane waves:   43682
 k-point 62 :   0.2000 0.4000-0.3333  plane waves:   43606
 k-point 63 :   0.4000 0.4000-0.3333  plane waves:   43584
 k-point 64 :  -0.4000 0.4000-0.3333  plane waves:   43584
 k-point 65 :  -0.2000 0.4000-0.3333  plane waves:   43606
 k-point 66 :   0.0000-0.4000-0.3333  plane waves:   43682
 k-point 67 :   0.2000-0.4000-0.3333  plane waves:   43606
 k-point 68 :   0.4000-0.4000-0.3333  plane waves:   43584
 k-point 69 :  -0.4000-0.4000-0.3333  plane waves:   43584
 k-point 70 :  -0.2000-0.4000-0.3333  plane waves:   43606
 k-point 71 :   0.0000-0.2000-0.3333  plane waves:   43626
 k-point 72 :   0.2000-0.2000-0.3333  plane waves:   43638
 k-point 73 :   0.4000-0.2000-0.3333  plane waves:   43724
 k-point 74 :  -0.4000-0.2000-0.3333  plane waves:   43724
 k-point 75 :  -0.2000-0.2000-0.3333  plane waves:   43638

 maximum and minimum number of plane-waves per node :     43756    43570

 maximum number of plane-waves:     43756
 maximum index in each direction: 
   IXMAX=   11   IYMAX=   11   IZMAX=   40
   IXMIN=  -11   IYMIN=  -11   IZMIN=  -40

 NGX is ok and might be reduce to  46
 NGY is ok and might be reduce to  46
 NGZ is ok and might be reduce to 162

 serial   3D FFT for wavefunctions
 parallel 3D FFT for charge:
    minimum data exchange during FFTs selected (reduces bandwidth)


 total amount of memory used by VASP on root node   578118. kBytes
========================================================================

   base      :      30000. kBytes
   nonlr-proj:      42475. kBytes
   fftplans  :       6958. kBytes
   grid      :      63700. kBytes
   one-center:       2985. kBytes
   wavefun   :     432000. kBytes
 
     INWAV:  cpu time    0.0000: real time    0.0000
 Broyden mixing: mesh for mixing (old mesh)
   NGX = 23   NGY = 23   NGZ = 81
  (NGX  = 96   NGY  = 96   NGZ  =324)
  gives a total of  42849 points

 initial charge density was supplied:
 charge density of overlapping atoms calculated
 number of electron     352.0000000 magnetization       0.0000000      0.0000000     -0.0000000
 keeping initial charge density in first step


--------------------------------------------------------------------------------------------------------


 Maximum index for non-local projection operator         8805
 Maximum index for augmentation-charges         1021 (set IRDMAX)


--------------------------------------------------------------------------------------------------------


 First call to EWALD:  gamma=   0.213
 Maximum number of real-space cells 4x 4x 1
 Maximum number of reciprocal cells 2x 2x 6

 FEWALD executed in parallel
    FEWALD:  cpu time    0.0026: real time    0.0038


----------------------------------------- Iteration    1(   1)  ---------------------------------------


    POTLOK:  cpu time    0.4682: real time    0.4718
    SETDIJ:  cpu time    0.0432: real time    0.0460
atom =   1  type =  1  l = 0
 
 onsite density matrix
 
spin component  1
 
  1.0933      0.0000
 
spin component  2
 
  0.0000      0.0000
 
spin component  3
 
  0.0000      0.0000
 
spin component  4
 
  1.0933      0.0000
 
 occupancies and eigenvectors
 
  o =  1.0933  v =  1.0000  0.0000      0.0000  0.0000
  o =  1.0933  v =  0.0000  1.0000      0.0000  0.0000
atom =   2  type =  1  l = 0
 
 onsite density matrix
 
spin component  1
 
  1.0933      0.0000
 
spin component  2
 
  0.0000      0.0000
 
spin component  3
 
  0.0000      0.0000
 
spin component  4
 
  1.0933      0.0000
 
 occupancies and eigenvectors
 
  o =  1.0933  v =  1.0000  0.0000      0.0000  0.0000
  o =  1.0933  v =  0.0000  1.0000      0.0000  0.0000
atom =   3  type =  1  l = 0
 
 onsite density matrix
 
spin component  1
 
  1.0933      0.0000
 
spin component  2
 
  0.0000      0.0000
 
spin component  3
 
  0.0000      0.0000
 
spin component  4
 
  1.0933      0.0000
 
 occupancies and eigenvectors
 
  o =  1.0933  v =  1.0000  0.0000      0.0000  0.0000
  o =  1.0933  v =  0.0000  1.0000      0.0000  0.0000
atom =   4  type =  1  l = 0
 
 onsite density matrix
 
spin component  1
 
  1.0933      0.0000
 
spin component  2
 
  0.0000      0.0000
 
spin component  3
 
  0.0000      0.0000
 
spin component  4
 
  1.0933      0.0000
 
 occupancies and eigenvectors
 
  o =  1.0933  v =  1.0000  0.0000      0.0000  0.0000
  o =  1.0933  v =  0.0000  1.0000      0.0000  0.0000
atom =   5  type =  1  l = 0
 
 onsite density matrix
 
spin component  1
 
  1.0933      0.0000
 
spin component  2
 
  0.0000      0.0000
 
spin component  3
 
  0.0000      0.0000
 
spin component  4
 
  1.0933      0.0000
 
 occupancies and eigenvectors
 
  o =  1.0933  v =  1.0000  0.0000      0.0000  0.0000
  o =  1.0933  v =  0.0000  1.0000      0.0000  0.0000
atom =   6  type =  1  l = 0
 
 onsite density matrix
 
spin component  1
 
  1.0933      0.0000
 
spin component  2
 
  0.0000      0.0000
 
spin component  3
 
  0.0000      0.0000
 
spin component  4
 
  1.0933      0.0000
 
 occupancies and eigenvectors
 
  o =  1.0933  v =  1.0000  0.0000      0.0000  0.0000
  o =  1.0933  v =  0.0000  1.0000      0.0000  0.0000
atom =   7  type =  1  l = 0
 
 onsite density matrix
 
spin component  1
 
  1.0933      0.0000
 
spin component  2
 
  0.0000      0.0000
 
spin component  3
 
  0.0000      0.0000
 
spin component  4
 
  1.0933      0.0000
 
 occupancies and eigenvectors
 
  o =  1.0933  v =  1.0000  0.0000      0.0000  0.0000
  o =  1.0933  v =  0.0000  1.0000      0.0000  0.0000
atom =   8  type =  1  l = 0
 
 onsite density matrix
 
spin component  1
 
  1.0933      0.0000
 
spin component  2
 
  0.0000      0.0000
 
spin component  3
 
  0.0000      0.0000
 
spin component  4
 
  1.0933      0.0000
 
 occupancies and eigenvectors
 
  o =  1.0933  v =  1.0000  0.0000      0.0000  0.0000
  o =  1.0933  v =  0.0000  1.0000      0.0000  0.0000
atom =   9  type =  1  l = 0
 
 onsite density matrix
 
spin component  1
 
  1.0933      0.0000
 
spin component  2
 
  0.0000      0.0000
 
spin component  3
 
  0.0000      0.0000
 
spin component  4
 
  1.0933      0.0000
 
 occupancies and eigenvectors
 
  o =  1.0933  v =  1.0000  0.0000      0.0000  0.0000
  o =  1.0933  v =  0.0000  1.0000      0.0000  0.0000
atom =  10  type =  1  l = 0
 
 onsite density matrix
 
spin component  1
 
  1.0933      0.0000
 
spin component  2
 
  0.0000      0.0000
 
spin component  3
 
  0.0000      0.0000
 
spin component  4
 
  1.0933      0.0000
 
 occupancies and eigenvectors
 
  o =  1.0933  v =  1.0000  0.0000      0.0000  0.0000
  o =  1.0933  v =  0.0000  1.0000      0.0000  0.0000
atom =  11  type =  1  l = 0
 
 onsite density matrix
 
spin component  1
 
  1.0933      0.0000
 
spin component  2
 
  0.0000      0.0000
 
spin component  3
 
  0.0000      0.0000
 
spin component  4
 
  1.0933      0.0000
 
 occupancies and eigenvectors
 
  o =  1.0933  v =  1.0000  0.0000      0.0000  0.0000
  o =  1.0933  v =  0.0000  1.0000      0.0000  0.0000
atom =  12  type =  1  l = 0
 
 onsite density matrix
 
spin component  1
 
  1.0933      0.0000
 
spin component  2
 
  0.0000      0.0000
 
spin component  3
 
  0.0000      0.0000
 
spin component  4
 
  1.0933      0.0000
 
 occupancies and eigenvectors
 
  o =  1.0933  v =  1.0000  0.0000      0.0000  0.0000
  o =  1.0933  v =  0.0000  1.0000      0.0000  0.0000
atom =  13  type =  2  l = 2
 
 onsite density matrix
 
spin component  1
 
  1.0048  0.0000  0.0000  0.0000  0.0000      0.0000  0.0000  0.0000  0.0000  0.0000
  0.0000  1.0048  0.0000  0.0000  0.0000      0.0000  0.0000  0.0000  0.0000  0.0000
  0.0000  0.0000  1.0048  0.0000  0.0000      0.0000  0.0000  0.0000  0.0000  0.0000
  0.0000  0.0000  0.0000  1.0048  0.0000      0.0000  0.0000  0.0000  0.0000  0.0000
  0.0000  0.0000  0.0000  0.0000  1.0048      0.0000  0.0000  0.0000  0.0000  0.0000
 
spin component  2
 
  0.0000  0.0000  0.0000  0.0000  0.0000      0.0000  0.0000  0.0000  0.0000  0.0000
  0.0000  0.0000  0.0000  0.0000  0.0000      0.0000  0.0000  0.0000  0.0000  0.0000
  0.0000  0.0000  0.0000  0.0000  0.0000      0.0000  0.0000  0.0000  0.0000  0.0000
  0.0000  0.0000  0.0000  0.0000  0.0000      0.0000  0.0000  0.0000  0.0000  0.0000
  0.0000  0.0000  0.0000  0.0000  0.0000      0.0000  0.0000  0.0000  0.0000  0.0000
 
spin component  3
 
  0.0000  0.0000  0.0000  0.0000  0.0000      0.0000  0.0000  0.0000  0.0000  0.0000
  0.0000  0.0000  0.0000  0.0000  0.0000      0.0000  0.0000  0.0000  0.0000  0.0000
  0.0000  0.0000  0.0000  0.0000  0.0000      0.0000  0.0000  0.0000  0.0000  0.0000
  0.0000  0.0000  0.0000  0.0000  0.0000      0.0000  0.0000  0.0000  0.0000  0.0000
  0.0000  0.0000  0.0000  0.0000  0.0000      0.0000  0.0000  0.0000  0.0000  0.0000
 
spin component  4
 
  0.2319  0.0000  0.0000  0.0000  0.0000      0.0000  0.0000  0.0000  0.0000  0.0000
  0.0000  0.2319  0.0000  0.0000  0.0000      0.0000  0.0000  0.0000  0.0000  0.0000
  0.0000  0.0000  0.2319  0.0000  0.0000      0.0000  0.0000  0.0000  0.0000  0.0000
  0.0000  0.0000  0.0000  0.2319  0.0000      0.0000  0.0000  0.0000  0.0000  0.0000
  0.0000  0.0000  0.0000  0.0000  0.2319      0.0000  0.0000  0.0000  0.0000  0.0000
 
 occupancies and eigenvectors
 
  o =  0.2319  v =  0.0000  0.0000  0.0000  0.0000  0.0000  0.0000  0.0000  1.0000  0.0000  0.0000      0.0000  0.0000  0.0000  0.0000  0.0000  0.0000  0.0000  0.0000  0.0000  0.0000
  o =  0.2319  v =  0.0000  0.0000  0.0000  0.0000  0.0000  1.0000  0.0000  0.0000  0.0000  0.0000      0.0000  0.0000  0.0000  0.0000  0.0000  0.0000  0.0000  0.0000  0.0000  0.0000
  o =  0.2319  v =  0.0000  0.0000  0.0000  0.0000  0.0000  0.0000  1.0000  0.0000  0.0000  0.0000      0.0000  0.0000  0.0000  0.0000  0.0000  0.0000  0.0000  0.0000  0.0000  0.0000
  o =  0.2319  v =  0.0000  0.0000  0.0000  0.0000  0.0000  0.0000  0.0000  0.0000  1.0000  0.0000      0.0000  0.0000  0.0000  0.0000  0.0000  0.0000  0.0000  0.0000  0.0000  0.0000
  o =  0.2319  v =  0.0000  0.0000  0.0000  0.0000  0.0000  0.0000  0.0000  0.0000  0.0000  1.0000      0.0000  0.0000  0.0000  0.0000  0.0000  0.0000  0.0000  0.0000  0.0000  0.0000
  o =  1.0048  v =  0.0000  1.0000  0.0000  0.0000  0.0000  0.0000  0.0000  0.0000  0.0000  0.0000      0.0000  0.0000  0.0000  0.0000  0.0000  0.0000  0.0000  0.0000  0.0000  0.0000
  o =  1.0048  v =  0.0000  0.0000  1.0000  0.0000  0.0000  0.0000  0.0000  0.0000  0.0000  0.0000      0.0000  0.0000  0.0000  0.0000  0.0000  0.0000  0.0000  0.0000  0.0000  0.0000
  o =  1.0048  v =  1.0000  0.0000  0.0000  0.0000  0.0000  0.0000  0.0000  0.0000  0.0000  0.0000      0.0000  0.0000  0.0000  0.0000  0.0000  0.0000  0.0000  0.0000  0.0000  0.0000
  o =  1.0048  v =  0.0000  0.0000  0.0000  1.0000  0.0000  0.0000  0.0000  0.0000  0.0000  0.0000      0.0000  0.0000  0.0000  0.0000  0.0000  0.0000  0.0000  0.0000  0.0000  0.0000
  o =  1.0048  v =  0.0000  0.0000  0.0000  0.0000  1.0000  0.0000  0.0000  0.0000  0.0000  0.0000      0.0000  0.0000  0.0000  0.0000  0.0000  0.0000  0.0000  0.0000  0.0000  0.0000
atom =  14  type =  2  l = 2
 
 onsite density matrix
 
spin component  1
 
  1.0048  0.0000  0.0000  0.0000  0.0000      0.0000  0.0000  0.0000  0.0000  0.0000
  0.0000  1.0048  0.0000  0.0000  0.0000      0.0000  0.0000  0.0000  0.0000  0.0000
  0.0000  0.0000  1.0048  0.0000  0.0000      0.0000  0.0000  0.0000  0.0000  0.0000
  0.0000  0.0000  0.0000  1.0048  0.0000      0.0000  0.0000  0.0000  0.0000  0.0000
  0.0000  0.0000  0.0000  0.0000  1.0048      0.0000  0.0000  0.0000  0.0000  0.0000
 
spin component  2
 
  0.0000  0.0000  0.0000  0.0000  0.0000      0.0000  0.0000  0.0000  0.0000  0.0000
  0.0000  0.0000  0.0000  0.0000  0.0000      0.0000  0.0000  0.0000  0.0000  0.0000
  0.0000  0.0000  0.0000  0.0000  0.0000      0.0000  0.0000  0.0000  0.0000  0.0000
  0.0000  0.0000  0.0000  0.0000  0.0000      0.0000  0.0000  0.0000  0.0000  0.0000
  0.0000  0.0000  0.0000  0.0000  0.0000      0.0000  0.0000  0.0000  0.0000  0.0000
 
spin component  3
 
  0.0000  0.0000  0.0000  0.0000  0.0000      0.0000  0.0000  0.0000  0.0000  0.0000
  0.0000  0.0000  0.0000  0.0000  0.0000      0.0000  0.0000  0.0000  0.0000  0.0000
  0.0000  0.0000  0.0000  0.0000  0.0000      0.0000  0.0000  0.0000  0.0000  0.0000
  0.0000  0.0000  0.0000  0.0000  0.0000      0.0000  0.0000  0.0000  0.0000  0.0000
  0.0000  0.0000  0.0000  0.0000  0.0000      0.0000  0.0000  0.0000  0.0000  0.0000
 
spin component  4
 
  0.2319  0.0000  0.0000  0.0000  0.0000      0.0000  0.0000  0.0000  0.0000  0.0000
  0.0000  0.2319  0.0000  0.0000  0.0000      0.0000  0.0000  0.0000  0.0000  0.0000
  0.0000  0.0000  0.2319  0.0000  0.0000      0.0000  0.0000  0.0000  0.0000  0.0000
  0.0000  0.0000  0.0000  0.2319  0.0000      0.0000  0.0000  0.0000  0.0000  0.0000
  0.0000  0.0000  0.0000  0.0000  0.2319      0.0000  0.0000  0.0000  0.0000  0.0000
 
 occupancies and eigenvectors
 
  o =  0.2319  v =  0.0000  0.0000  0.0000  0.0000  0.0000  0.0000  0.0000  1.0000  0.0000  0.0000      0.0000  0.0000  0.0000  0.0000  0.0000  0.0000  0.0000  0.0000  0.0000  0.0000
  o =  0.2319  v =  0.0000  0.0000  0.0000  0.0000  0.0000  1.0000  0.0000  0.0000  0.0000  0.0000      0.0000  0.0000  0.0000  0.0000  0.0000  0.0000  0.0000  0.0000  0.0000  0.0000
  o =  0.2319  v =  0.0000  0.0000  0.0000  0.0000  0.0000  0.0000  1.0000  0.0000  0.0000  0.0000      0.0000  0.0000  0.0000  0.0000  0.0000  0.0000  0.0000  0.0000  0.0000  0.0000
  o =  0.2319  v =  0.0000  0.0000  0.0000  0.0000  0.0000  0.0000  0.0000  0.0000  1.0000  0.0000      0.0000  0.0000  0.0000  0.0000  0.0000  0.0000  0.0000  0.0000  0.0000  0.0000
  o =  0.2319  v =  0.0000  0.0000  0.0000  0.0000  0.0000  0.0000  0.0000  0.0000  0.0000  1.0000      0.0000  0.0000  0.0000  0.0000  0.0000  0.0000  0.0000  0.0000  0.0000  0.0000
  o =  1.0048  v =  0.0000  1.0000  0.0000  0.0000  0.0000  0.0000  0.0000  0.0000  0.0000  0.0000      0.0000  0.0000  0.0000  0.0000  0.0000  0.0000  0.0000  0.0000  0.0000  0.0000
  o =  1.0048  v =  0.0000  0.0000  1.0000  0.0000  0.0000  0.0000  0.0000  0.0000  0.0000  0.0000      0.0000  0.0000  0.0000  0.0000  0.0000  0.0000  0.0000  0.0000  0.0000  0.0000
  o =  1.0048  v =  1.0000  0.0000  0.0000  0.0000  0.0000  0.0000  0.0000  0.0000  0.0000  0.0000      0.0000  0.0000  0.0000  0.0000  0.0000  0.0000  0.0000  0.0000  0.0000  0.0000
  o =  1.0048  v =  0.0000  0.0000  0.0000  1.0000  0.0000  0.0000  0.0000  0.0000  0.0000  0.0000      0.0000  0.0000  0.0000  0.0000  0.0000  0.0000  0.0000  0.0000  0.0000  0.0000
  o =  1.0048  v =  0.0000  0.0000  0.0000  0.0000  1.0000  0.0000  0.0000  0.0000  0.0000  0.0000      0.0000  0.0000  0.0000  0.0000  0.0000  0.0000  0.0000  0.0000  0.0000  0.0000
atom =  15  type =  2  l = 2
 
 onsite density matrix
 
spin component  1
 
  1.0048  0.0000  0.0000  0.0000  0.0000      0.0000  0.0000  0.0000  0.0000  0.0000
  0.0000  1.0048  0.0000  0.0000  0.0000      0.0000  0.0000  0.0000  0.0000  0.0000
  0.0000  0.0000  1.0048  0.0000  0.0000      0.0000  0.0000  0.0000  0.0000  0.0000
  0.0000  0.0000  0.0000  1.0048  0.0000      0.0000  0.0000  0.0000  0.0000  0.0000
  0.0000  0.0000  0.0000  0.0000  1.0048      0.0000  0.0000  0.0000  0.0000  0.0000
 
spin component  2
 
  0.0000  0.0000  0.0000  0.0000  0.0000      0.0000  0.0000  0.0000  0.0000  0.0000
  0.0000  0.0000  0.0000  0.0000  0.0000      0.0000  0.0000  0.0000  0.0000  0.0000
  0.0000  0.0000  0.0000  0.0000  0.0000      0.0000  0.0000  0.0000  0.0000  0.0000
  0.0000  0.0000  0.0000  0.0000  0.0000      0.0000  0.0000  0.0000  0.0000  0.0000
  0.0000  0.0000  0.0000  0.0000  0.0000      0.0000  0.0000  0.0000  0.0000  0.0000
 
spin component  3
 
  0.0000  0.0000  0.0000  0.0000  0.0000      0.0000  0.0000  0.0000  0.0000  0.0000
  0.0000  0.0000  0.0000  0.0000  0.0000      0.0000  0.0000  0.0000  0.0000  0.0000
  0.0000  0.0000  0.0000  0.0000  0.0000      0.0000  0.0000  0.0000  0.0000  0.0000
  0.0000  0.0000  0.0000  0.0000  0.0000      0.0000  0.0000  0.0000  0.0000  0.0000
  0.0000  0.0000  0.0000  0.0000  0.0000      0.0000  0.0000  0.0000  0.0000  0.0000
 
spin component  4
 
  0.2319  0.0000  0.0000  0.0000  0.0000      0.0000  0.0000  0.0000  0.0000  0.0000
  0.0000  0.2319  0.0000  0.0000  0.0000      0.0000  0.0000  0.0000  0.0000  0.0000
  0.0000  0.0000  0.2319  0.0000  0.0000      0.0000  0.0000  0.0000  0.0000  0.0000
  0.0000  0.0000  0.0000  0.2319  0.0000      0.0000  0.0000  0.0000  0.0000  0.0000
  0.0000  0.0000  0.0000  0.0000  0.2319      0.0000  0.0000  0.0000  0.0000  0.0000
 
 occupancies and eigenvectors
 
  o =  0.2319  v =  0.0000  0.0000  0.0000  0.0000  0.0000  0.0000  0.0000  1.0000  0.0000  0.0000      0.0000  0.0000  0.0000  0.0000  0.0000  0.0000  0.0000  0.0000  0.0000  0.0000
  o =  0.2319  v =  0.0000  0.0000  0.0000  0.0000  0.0000  1.0000  0.0000  0.0000  0.0000  0.0000      0.0000  0.0000  0.0000  0.0000  0.0000  0.0000  0.0000  0.0000  0.0000  0.0000
  o =  0.2319  v =  0.0000  0.0000  0.0000  0.0000  0.0000  0.0000  1.0000  0.0000  0.0000  0.0000      0.0000  0.0000  0.0000  0.0000  0.0000  0.0000  0.0000  0.0000  0.0000  0.0000
  o =  0.2319  v =  0.0000  0.0000  0.0000  0.0000  0.0000  0.0000  0.0000  0.0000  1.0000  0.0000      0.0000  0.0000  0.0000  0.0000  0.0000  0.0000  0.0000  0.0000  0.0000  0.0000
  o =  0.2319  v =  0.0000  0.0000  0.0000  0.0000  0.0000  0.0000  0.0000  0.0000  0.0000  1.0000      0.0000  0.0000  0.0000  0.0000  0.0000  0.0000  0.0000  0.0000  0.0000  0.0000
  o =  1.0048  v =  0.0000  1.0000  0.0000  0.0000  0.0000  0.0000  0.0000  0.0000  0.0000  0.0000      0.0000  0.0000  0.0000  0.0000  0.0000  0.0000  0.0000  0.0000  0.0000  0.0000
  o =  1.0048  v =  0.0000  0.0000  1.0000  0.0000  0.0000  0.0000  0.0000  0.0000  0.0000  0.0000      0.0000  0.0000  0.0000  0.0000  0.0000  0.0000  0.0000  0.0000  0.0000  0.0000
  o =  1.0048  v =  1.0000  0.0000  0.0000  0.0000  0.0000  0.0000  0.0000  0.0000  0.0000  0.0000      0.0000  0.0000  0.0000  0.0000  0.0000  0.0000  0.0000  0.0000  0.0000  0.0000
  o =  1.0048  v =  0.0000  0.0000  0.0000  1.0000  0.0000  0.0000  0.0000  0.0000  0.0000  0.0000      0.0000  0.0000  0.0000  0.0000  0.0000  0.0000  0.0000  0.0000  0.0000  0.0000
  o =  1.0048  v =  0.0000  0.0000  0.0000  0.0000  1.0000  0.0000  0.0000  0.0000  0.0000  0.0000      0.0000  0.0000  0.0000  0.0000  0.0000  0.0000  0.0000  0.0000  0.0000  0.0000
atom =  16  type =  2  l = 2
 
 onsite density matrix
 
spin component  1
 
  1.0048  0.0000  0.0000  0.0000  0.0000      0.0000  0.0000  0.0000  0.0000  0.0000
  0.0000  1.0048  0.0000  0.0000  0.0000      0.0000  0.0000  0.0000  0.0000  0.0000
  0.0000  0.0000  1.0048  0.0000  0.0000      0.0000  0.0000  0.0000  0.0000  0.0000
  0.0000  0.0000  0.0000  1.0048  0.0000      0.0000  0.0000  0.0000  0.0000  0.0000
  0.0000  0.0000  0.0000  0.0000  1.0048      0.0000  0.0000  0.0000  0.0000  0.0000
 
spin component  2
 
  0.0000  0.0000  0.0000  0.0000  0.0000      0.0000  0.0000  0.0000  0.0000  0.0000
  0.0000  0.0000  0.0000  0.0000  0.0000      0.0000  0.0000  0.0000  0.0000  0.0000
  0.0000  0.0000  0.0000  0.0000  0.0000      0.0000  0.0000  0.0000  0.0000  0.0000
  0.0000  0.0000  0.0000  0.0000  0.0000      0.0000  0.0000  0.0000  0.0000  0.0000
  0.0000  0.0000  0.0000  0.0000  0.0000      0.0000  0.0000  0.0000  0.0000  0.0000
 
spin component  3
 
  0.0000  0.0000  0.0000  0.0000  0.0000      0.0000  0.0000  0.0000  0.0000  0.0000
  0.0000  0.0000  0.0000  0.0000  0.0000      0.0000  0.0000  0.0000  0.0000  0.0000
  0.0000  0.0000  0.0000  0.0000  0.0000      0.0000  0.0000  0.0000  0.0000  0.0000
  0.0000  0.0000  0.0000  0.0000  0.0000      0.0000  0.0000  0.0000  0.0000  0.0000
  0.0000  0.0000  0.0000  0.0000  0.0000      0.0000  0.0000  0.0000  0.0000  0.0000
 
spin component  4
 
  0.2319  0.0000  0.0000  0.0000  0.0000      0.0000  0.0000  0.0000  0.0000  0.0000
  0.0000  0.2319  0.0000  0.0000  0.0000      0.0000  0.0000  0.0000  0.0000  0.0000
  0.0000  0.0000  0.2319  0.0000  0.0000      0.0000  0.0000  0.0000  0.0000  0.0000
  0.0000  0.0000  0.0000  0.2319  0.0000      0.0000  0.0000  0.0000  0.0000  0.0000
  0.0000  0.0000  0.0000  0.0000  0.2319      0.0000  0.0000  0.0000  0.0000  0.0000
 
 occupancies and eigenvectors
 
  o =  0.2319  v =  0.0000  0.0000  0.0000  0.0000  0.0000  0.0000  0.0000  1.0000  0.0000  0.0000      0.0000  0.0000  0.0000  0.0000  0.0000  0.0000  0.0000  0.0000  0.0000  0.0000
  o =  0.2319  v =  0.0000  0.0000  0.0000  0.0000  0.0000  1.0000  0.0000  0.0000  0.0000  0.0000      0.0000  0.0000  0.0000  0.0000  0.0000  0.0000  0.0000  0.0000  0.0000  0.0000
  o =  0.2319  v =  0.0000  0.0000  0.0000  0.0000  0.0000  0.0000  1.0000  0.0000  0.0000  0.0000      0.0000  0.0000  0.0000  0.0000  0.0000  0.0000  0.0000  0.0000  0.0000  0.0000
  o =  0.2319  v =  0.0000  0.0000  0.0000  0.0000  0.0000  0.0000  0.0000  0.0000  1.0000  0.0000      0.0000  0.0000  0.0000  0.0000  0.0000  0.0000  0.0000  0.0000  0.0000  0.0000
  o =  0.2319  v =  0.0000  0.0000  0.0000  0.0000  0.0000  0.0000  0.0000  0.0000  0.0000  1.0000      0.0000  0.0000  0.0000  0.0000  0.0000  0.0000  0.0000  0.0000  0.0000  0.0000
  o =  1.0048  v =  0.0000  1.0000  0.0000  0.0000  0.0000  0.0000  0.0000  0.0000  0.0000  0.0000      0.0000  0.0000  0.0000  0.0000  0.0000  0.0000  0.0000  0.0000  0.0000  0.0000
  o =  1.0048  v =  0.0000  0.0000  1.0000  0.0000  0.0000  0.0000  0.0000  0.0000  0.0000  0.0000      0.0000  0.0000  0.0000  0.0000  0.0000  0.0000  0.0000  0.0000  0.0000  0.0000
  o =  1.0048  v =  1.0000  0.0000  0.0000  0.0000  0.0000  0.0000  0.0000  0.0000  0.0000  0.0000      0.0000  0.0000  0.0000  0.0000  0.0000  0.0000  0.0000  0.0000  0.0000  0.0000
  o =  1.0048  v =  0.0000  0.0000  0.0000  1.0000  0.0000  0.0000  0.0000  0.0000  0.0000  0.0000      0.0000  0.0000  0.0000  0.0000  0.0000  0.0000  0.0000  0.0000  0.0000  0.0000
  o =  1.0048  v =  0.0000  0.0000  0.0000  0.0000  1.0000  0.0000  0.0000  0.0000  0.0000  0.0000      0.0000  0.0000  0.0000  0.0000  0.0000  0.0000  0.0000  0.0000  0.0000  0.0000
atom =  17  type =  2  l = 2
 
 onsite density matrix
 
spin component  1
 
  0.2319  0.0000  0.0000  0.0000  0.0000      0.0000  0.0000  0.0000  0.0000  0.0000
  0.0000  0.2319  0.0000  0.0000  0.0000      0.0000  0.0000  0.0000  0.0000  0.0000
  0.0000  0.0000  0.2319  0.0000  0.0000      0.0000  0.0000  0.0000  0.0000  0.0000
  0.0000  0.0000  0.0000  0.2319  0.0000      0.0000  0.0000  0.0000  0.0000  0.0000
  0.0000  0.0000  0.0000  0.0000  0.2319      0.0000  0.0000  0.0000  0.0000  0.0000
 
spin component  2
 
  0.0000  0.0000  0.0000  0.0000  0.0000      0.0000  0.0000  0.0000  0.0000  0.0000
  0.0000  0.0000  0.0000  0.0000  0.0000      0.0000  0.0000  0.0000  0.0000  0.0000
  0.0000  0.0000  0.0000  0.0000  0.0000      0.0000  0.0000  0.0000  0.0000  0.0000
  0.0000  0.0000  0.0000  0.0000  0.0000      0.0000  0.0000  0.0000  0.0000  0.0000
  0.0000  0.0000  0.0000  0.0000  0.0000      0.0000  0.0000  0.0000  0.0000  0.0000
 
spin component  3
 
  0.0000  0.0000  0.0000  0.0000  0.0000      0.0000  0.0000  0.0000  0.0000  0.0000
  0.0000  0.0000  0.0000  0.0000  0.0000      0.0000  0.0000  0.0000  0.0000  0.0000
  0.0000  0.0000  0.0000  0.0000  0.0000      0.0000  0.0000  0.0000  0.0000  0.0000
  0.0000  0.0000  0.0000  0.0000  0.0000      0.0000  0.0000  0.0000  0.0000  0.0000
  0.0000  0.0000  0.0000  0.0000  0.0000      0.0000  0.0000  0.0000  0.0000  0.0000
 
spin component  4
 
  1.0048  0.0000  0.0000  0.0000  0.0000      0.0000  0.0000  0.0000  0.0000  0.0000
  0.0000  1.0048  0.0000  0.0000  0.0000      0.0000  0.0000  0.0000  0.0000  0.0000
  0.0000  0.0000  1.0048  0.0000  0.0000      0.0000  0.0000  0.0000  0.0000  0.0000
  0.0000  0.0000  0.0000  1.0048  0.0000      0.0000  0.0000  0.0000  0.0000  0.0000
  0.0000  0.0000  0.0000  0.0000  1.0048      0.0000  0.0000  0.0000  0.0000  0.0000
 
 occupancies and eigenvectors
 
  o =  0.2319  v =  0.0000  0.0000  1.0000  0.0000  0.0000  0.0000  0.0000  0.0000  0.0000  0.0000      0.0000  0.0000  0.0000  0.0000  0.0000  0.0000  0.0000  0.0000  0.0000  0.0000
  o =  0.2319  v =  0.0000  1.0000  0.0000  0.0000  0.0000  0.0000  0.0000  0.0000  0.0000  0.0000      0.0000  0.0000  0.0000  0.0000  0.0000  0.0000  0.0000  0.0000  0.0000  0.0000
  o =  0.2319  v =  1.0000  0.0000  0.0000  0.0000  0.0000  0.0000  0.0000  0.0000  0.0000  0.0000      0.0000  0.0000  0.0000  0.0000  0.0000  0.0000  0.0000  0.0000  0.0000  0.0000
  o =  0.2319  v =  0.0000  0.0000  0.0000  1.0000  0.0000  0.0000  0.0000  0.0000  0.0000  0.0000      0.0000  0.0000  0.0000  0.0000  0.0000  0.0000  0.0000  0.0000  0.0000  0.0000
  o =  0.2319  v =  0.0000  0.0000  0.0000  0.0000  1.0000  0.0000  0.0000  0.0000  0.0000  0.0000      0.0000  0.0000  0.0000  0.0000  0.0000  0.0000  0.0000  0.0000  0.0000  0.0000
  o =  1.0048  v =  0.0000  0.0000  0.0000  0.0000  0.0000  1.0000  0.0000  0.0000  0.0000  0.0000      0.0000  0.0000  0.0000  0.0000  0.0000  0.0000  0.0000  0.0000  0.0000  0.0000
  o =  1.0048  v =  0.0000  0.0000  0.0000  0.0000  0.0000  0.0000  1.0000  0.0000  0.0000  0.0000      0.0000  0.0000  0.0000  0.0000  0.0000  0.0000  0.0000  0.0000  0.0000  0.0000
  o =  1.0048  v =  0.0000  0.0000  0.0000  0.0000  0.0000  0.0000  0.0000  1.0000  0.0000  0.0000      0.0000  0.0000  0.0000  0.0000  0.0000  0.0000  0.0000  0.0000  0.0000  0.0000
  o =  1.0048  v =  0.0000  0.0000  0.0000  0.0000  0.0000  0.0000  0.0000  0.0000  1.0000  0.0000      0.0000  0.0000  0.0000  0.0000  0.0000  0.0000  0.0000  0.0000  0.0000  0.0000
  o =  1.0048  v =  0.0000  0.0000  0.0000  0.0000  0.0000  0.0000  0.0000  0.0000  0.0000  1.0000      0.0000  0.0000  0.0000  0.0000  0.0000  0.0000  0.0000  0.0000  0.0000  0.0000
atom =  18  type =  2  l = 2
 
 onsite density matrix
 
spin component  1
 
  0.2319  0.0000  0.0000  0.0000  0.0000      0.0000  0.0000  0.0000  0.0000  0.0000
  0.0000  0.2319  0.0000  0.0000  0.0000      0.0000  0.0000  0.0000  0.0000  0.0000
  0.0000  0.0000  0.2319  0.0000  0.0000      0.0000  0.0000  0.0000  0.0000  0.0000
  0.0000  0.0000  0.0000  0.2319  0.0000      0.0000  0.0000  0.0000  0.0000  0.0000
  0.0000  0.0000  0.0000  0.0000  0.2319      0.0000  0.0000  0.0000  0.0000  0.0000
 
spin component  2
 
  0.0000  0.0000  0.0000  0.0000  0.0000      0.0000  0.0000  0.0000  0.0000  0.0000
  0.0000  0.0000  0.0000  0.0000  0.0000      0.0000  0.0000  0.0000  0.0000  0.0000
  0.0000  0.0000  0.0000  0.0000  0.0000      0.0000  0.0000  0.0000  0.0000  0.0000
  0.0000  0.0000  0.0000  0.0000  0.0000      0.0000  0.0000  0.0000  0.0000  0.0000
  0.0000  0.0000  0.0000  0.0000  0.0000      0.0000  0.0000  0.0000  0.0000  0.0000
 
spin component  3
 
  0.0000  0.0000  0.0000  0.0000  0.0000      0.0000  0.0000  0.0000  0.0000  0.0000
  0.0000  0.0000  0.0000  0.0000  0.0000      0.0000  0.0000  0.0000  0.0000  0.0000
  0.0000  0.0000  0.0000  0.0000  0.0000      0.0000  0.0000  0.0000  0.0000  0.0000
  0.0000  0.0000  0.0000  0.0000  0.0000      0.0000  0.0000  0.0000  0.0000  0.0000
  0.0000  0.0000  0.0000  0.0000  0.0000      0.0000  0.0000  0.0000  0.0000  0.0000
 
spin component  4
 
  1.0048  0.0000  0.0000  0.0000  0.0000      0.0000  0.0000  0.0000  0.0000  0.0000
  0.0000  1.0048  0.0000  0.0000  0.0000      0.0000  0.0000  0.0000  0.0000  0.0000
  0.0000  0.0000  1.0048  0.0000  0.0000      0.0000  0.0000  0.0000  0.0000  0.0000
  0.0000  0.0000  0.0000  1.0048  0.0000      0.0000  0.0000  0.0000  0.0000  0.0000
  0.0000  0.0000  0.0000  0.0000  1.0048      0.0000  0.0000  0.0000  0.0000  0.0000
 
 occupancies and eigenvectors
 
  o =  0.2319  v =  0.0000  0.0000  1.0000  0.0000  0.0000  0.0000  0.0000  0.0000  0.0000  0.0000      0.0000  0.0000  0.0000  0.0000  0.0000  0.0000  0.0000  0.0000  0.0000  0.0000
  o =  0.2319  v =  0.0000  1.0000  0.0000  0.0000  0.0000  0.0000  0.0000  0.0000  0.0000  0.0000      0.0000  0.0000  0.0000  0.0000  0.0000  0.0000  0.0000  0.0000  0.0000  0.0000
[...]
     0.0000000     0.0000000     0.0000000     0.0000000     0.0000000     0.0000000     0.0000000
     0.0000000     0.0000000     0.0000000     0.0000000     0.0000000     0.0000000     0.0000000
     0.0000000     0.0000000     0.0000000     0.0000000     0.0000000     0.0000000     0.0000000

 Ion:   34  E_soc:     -0.0003274
 l=   1
     0.0000000    -0.0000901     0.0000038
    -0.0000901     0.0000000    -0.0000775
     0.0000038    -0.0000775     0.0000000
 l=   2
     0.0000000     0.0000000     0.0000000     0.0000000     0.0000000
     0.0000000     0.0000000     0.0000000     0.0000000     0.0000000
     0.0000000     0.0000000     0.0000000     0.0000000     0.0000000
     0.0000000     0.0000000     0.0000000     0.0000000     0.0000000
     0.0000000     0.0000000     0.0000000     0.0000000     0.0000000
 l=   3
     0.0000000     0.0000000     0.0000000     0.0000000     0.0000000     0.0000000     0.0000000
     0.0000000     0.0000000     0.0000000     0.0000000     0.0000000     0.0000000     0.0000000
     0.0000000     0.0000000     0.0000000     0.0000000     0.0000000     0.0000000     0.0000000
     0.0000000     0.0000000     0.0000000     0.0000000     0.0000000     0.0000000     0.0000000
     0.0000000     0.0000000     0.0000000     0.0000000     0.0000000     0.0000000     0.0000000
     0.0000000     0.0000000     0.0000000     0.0000000     0.0000000     0.0000000     0.0000000
     0.0000000     0.0000000     0.0000000     0.0000000     0.0000000     0.0000000     0.0000000

 Ion:   35  E_soc:     -0.0003274
 l=   1
     0.0000000    -0.0000901     0.0000038
    -0.0000901     0.0000000    -0.0000774
     0.0000038    -0.0000774     0.0000000
 l=   2
     0.0000000     0.0000000     0.0000000     0.0000000     0.0000000
     0.0000000     0.0000000     0.0000000     0.0000000     0.0000000
     0.0000000     0.0000000     0.0000000     0.0000000     0.0000000
     0.0000000     0.0000000     0.0000000     0.0000000     0.0000000
     0.0000000     0.0000000     0.0000000     0.0000000     0.0000000
 l=   3
     0.0000000     0.0000000     0.0000000     0.0000000     0.0000000     0.0000000     0.0000000
     0.0000000     0.0000000     0.0000000     0.0000000     0.0000000     0.0000000     0.0000000
     0.0000000     0.0000000     0.0000000     0.0000000     0.0000000     0.0000000     0.0000000
     0.0000000     0.0000000     0.0000000     0.0000000     0.0000000     0.0000000     0.0000000
     0.0000000     0.0000000     0.0000000     0.0000000     0.0000000     0.0000000     0.0000000
     0.0000000     0.0000000     0.0000000     0.0000000     0.0000000     0.0000000     0.0000000
     0.0000000     0.0000000     0.0000000     0.0000000     0.0000000     0.0000000     0.0000000

 Ion:   36  E_soc:     -0.0003272
 l=   1
     0.0000000    -0.0000901     0.0000038
    -0.0000901     0.0000000    -0.0000774
     0.0000038    -0.0000774     0.0000000
 l=   2
     0.0000000     0.0000000     0.0000000     0.0000000     0.0000000
     0.0000000     0.0000000     0.0000000     0.0000000     0.0000000
     0.0000000     0.0000000     0.0000000     0.0000000     0.0000000
     0.0000000     0.0000000     0.0000000     0.0000000     0.0000000
     0.0000000     0.0000000     0.0000000     0.0000000     0.0000000
 l=   3
     0.0000000     0.0000000     0.0000000     0.0000000     0.0000000     0.0000000     0.0000000
     0.0000000     0.0000000     0.0000000     0.0000000     0.0000000     0.0000000     0.0000000
     0.0000000     0.0000000     0.0000000     0.0000000     0.0000000     0.0000000     0.0000000
     0.0000000     0.0000000     0.0000000     0.0000000     0.0000000     0.0000000     0.0000000
     0.0000000     0.0000000     0.0000000     0.0000000     0.0000000     0.0000000     0.0000000
     0.0000000     0.0000000     0.0000000     0.0000000     0.0000000     0.0000000     0.0000000
     0.0000000     0.0000000     0.0000000     0.0000000     0.0000000     0.0000000     0.0000000

 Ion:   37  E_soc:     -0.0003273
 l=   1
     0.0000000    -0.0000900     0.0000038
    -0.0000900     0.0000000    -0.0000774
     0.0000038    -0.0000774     0.0000000
 l=   2
     0.0000000     0.0000000     0.0000000     0.0000000     0.0000000
     0.0000000     0.0000000     0.0000000     0.0000000     0.0000000
     0.0000000     0.0000000     0.0000000     0.0000000     0.0000000
     0.0000000     0.0000000     0.0000000     0.0000000     0.0000000
     0.0000000     0.0000000     0.0000000     0.0000000     0.0000000
 l=   3
     0.0000000     0.0000000     0.0000000     0.0000000     0.0000000     0.0000000     0.0000000
     0.0000000     0.0000000     0.0000000     0.0000000     0.0000000     0.0000000     0.0000000
     0.0000000     0.0000000     0.0000000     0.0000000     0.0000000     0.0000000     0.0000000
     0.0000000     0.0000000     0.0000000     0.0000000     0.0000000     0.0000000     0.0000000
     0.0000000     0.0000000     0.0000000     0.0000000     0.0000000     0.0000000     0.0000000
     0.0000000     0.0000000     0.0000000     0.0000000     0.0000000     0.0000000     0.0000000
     0.0000000     0.0000000     0.0000000     0.0000000     0.0000000     0.0000000     0.0000000

 Ion:   38  E_soc:     -0.0003273
 l=   1
     0.0000000    -0.0000901     0.0000038
    -0.0000901     0.0000000    -0.0000774
     0.0000038    -0.0000774     0.0000000
 l=   2
     0.0000000     0.0000000     0.0000000     0.0000000     0.0000000
     0.0000000     0.0000000     0.0000000     0.0000000     0.0000000
     0.0000000     0.0000000     0.0000000     0.0000000     0.0000000
     0.0000000     0.0000000     0.0000000     0.0000000     0.0000000
     0.0000000     0.0000000     0.0000000     0.0000000     0.0000000
 l=   3
     0.0000000     0.0000000     0.0000000     0.0000000     0.0000000     0.0000000     0.0000000
     0.0000000     0.0000000     0.0000000     0.0000000     0.0000000     0.0000000     0.0000000
     0.0000000     0.0000000     0.0000000     0.0000000     0.0000000     0.0000000     0.0000000
     0.0000000     0.0000000     0.0000000     0.0000000     0.0000000     0.0000000     0.0000000
     0.0000000     0.0000000     0.0000000     0.0000000     0.0000000     0.0000000     0.0000000
     0.0000000     0.0000000     0.0000000     0.0000000     0.0000000     0.0000000     0.0000000
     0.0000000     0.0000000     0.0000000     0.0000000     0.0000000     0.0000000     0.0000000

 Ion:   39  E_soc:     -0.0003273
 l=   1
     0.0000000    -0.0000901     0.0000038
    -0.0000901     0.0000000    -0.0000774
     0.0000038    -0.0000774     0.0000000
 l=   2
     0.0000000     0.0000000     0.0000000     0.0000000     0.0000000
     0.0000000     0.0000000     0.0000000     0.0000000     0.0000000
     0.0000000     0.0000000     0.0000000     0.0000000     0.0000000
     0.0000000     0.0000000     0.0000000     0.0000000     0.0000000
     0.0000000     0.0000000     0.0000000     0.0000000     0.0000000
 l=   3
     0.0000000     0.0000000     0.0000000     0.0000000     0.0000000     0.0000000     0.0000000
     0.0000000     0.0000000     0.0000000     0.0000000     0.0000000     0.0000000     0.0000000
     0.0000000     0.0000000     0.0000000     0.0000000     0.0000000     0.0000000     0.0000000
     0.0000000     0.0000000     0.0000000     0.0000000     0.0000000     0.0000000     0.0000000
     0.0000000     0.0000000     0.0000000     0.0000000     0.0000000     0.0000000     0.0000000
     0.0000000     0.0000000     0.0000000     0.0000000     0.0000000     0.0000000     0.0000000
     0.0000000     0.0000000     0.0000000     0.0000000     0.0000000     0.0000000     0.0000000

 Ion:   40  E_soc:     -0.0003273
 l=   1
     0.0000000    -0.0000901     0.0000038
    -0.0000901     0.0000000    -0.0000774
     0.0000038    -0.0000774     0.0000000
 l=   2
     0.0000000     0.0000000     0.0000000     0.0000000     0.0000000
     0.0000000     0.0000000     0.0000000     0.0000000     0.0000000
     0.0000000     0.0000000     0.0000000     0.0000000     0.0000000
     0.0000000     0.0000000     0.0000000     0.0000000     0.0000000
     0.0000000     0.0000000     0.0000000     0.0000000     0.0000000
 l=   3
     0.0000000     0.0000000     0.0000000     0.0000000     0.0000000     0.0000000     0.0000000
     0.0000000     0.0000000     0.0000000     0.0000000     0.0000000     0.0000000     0.0000000
     0.0000000     0.0000000     0.0000000     0.0000000     0.0000000     0.0000000     0.0000000
     0.0000000     0.0000000     0.0000000     0.0000000     0.0000000     0.0000000     0.0000000
     0.0000000     0.0000000     0.0000000     0.0000000     0.0000000     0.0000000     0.0000000
     0.0000000     0.0000000     0.0000000     0.0000000     0.0000000     0.0000000     0.0000000
     0.0000000     0.0000000     0.0000000     0.0000000     0.0000000     0.0000000     0.0000000

 Ion:   41  E_soc:     -0.0003133
 l=   1
     0.0000000    -0.0000890    -0.0000071
    -0.0000890     0.0000000    -0.0000605
    -0.0000071    -0.0000605     0.0000000
 l=   2
     0.0000000     0.0000000     0.0000000     0.0000000     0.0000000
     0.0000000     0.0000000     0.0000000     0.0000000     0.0000000
     0.0000000     0.0000000     0.0000000     0.0000000     0.0000000
     0.0000000     0.0000000     0.0000000     0.0000000     0.0000000
     0.0000000     0.0000000     0.0000000     0.0000000     0.0000000
 l=   3
     0.0000000     0.0000000     0.0000000     0.0000000     0.0000000     0.0000000     0.0000000
     0.0000000     0.0000000     0.0000000     0.0000000     0.0000000     0.0000000     0.0000000
     0.0000000     0.0000000     0.0000000     0.0000000     0.0000000     0.0000000     0.0000000
     0.0000000     0.0000000     0.0000000     0.0000000     0.0000000     0.0000000     0.0000000
     0.0000000     0.0000000     0.0000000     0.0000000     0.0000000     0.0000000     0.0000000
     0.0000000     0.0000000     0.0000000     0.0000000     0.0000000     0.0000000     0.0000000
     0.0000000     0.0000000     0.0000000     0.0000000     0.0000000     0.0000000     0.0000000

 Ion:   42  E_soc:     -0.0003132
 l=   1
     0.0000000    -0.0000890    -0.0000072
    -0.0000890     0.0000000    -0.0000605
    -0.0000072    -0.0000605     0.0000000
 l=   2
     0.0000000     0.0000000     0.0000000     0.0000000     0.0000000
     0.0000000     0.0000000     0.0000000     0.0000000     0.0000000
     0.0000000     0.0000000     0.0000000     0.0000000     0.0000000
     0.0000000     0.0000000     0.0000000     0.0000000     0.0000000
     0.0000000     0.0000000     0.0000000     0.0000000     0.0000000
 l=   3
     0.0000000     0.0000000     0.0000000     0.0000000     0.0000000     0.0000000     0.0000000
     0.0000000     0.0000000     0.0000000     0.0000000     0.0000000     0.0000000     0.0000000
     0.0000000     0.0000000     0.0000000     0.0000000     0.0000000     0.0000000     0.0000000
     0.0000000     0.0000000     0.0000000     0.0000000     0.0000000     0.0000000     0.0000000
     0.0000000     0.0000000     0.0000000     0.0000000     0.0000000     0.0000000     0.0000000
     0.0000000     0.0000000     0.0000000     0.0000000     0.0000000     0.0000000     0.0000000
     0.0000000     0.0000000     0.0000000     0.0000000     0.0000000     0.0000000     0.0000000

 Ion:   43  E_soc:     -0.0003132
 l=   1
     0.0000000    -0.0000890    -0.0000072
    -0.0000890     0.0000000    -0.0000605
    -0.0000072    -0.0000605     0.0000000
 l=   2
     0.0000000     0.0000000     0.0000000     0.0000000     0.0000000
     0.0000000     0.0000000     0.0000000     0.0000000     0.0000000
     0.0000000     0.0000000     0.0000000     0.0000000     0.0000000
     0.0000000     0.0000000     0.0000000     0.0000000     0.0000000
     0.0000000     0.0000000     0.0000000     0.0000000     0.0000000
 l=   3
     0.0000000     0.0000000     0.0000000     0.0000000     0.0000000     0.0000000     0.0000000
     0.0000000     0.0000000     0.0000000     0.0000000     0.0000000     0.0000000     0.0000000
     0.0000000     0.0000000     0.0000000     0.0000000     0.0000000     0.0000000     0.0000000
     0.0000000     0.0000000     0.0000000     0.0000000     0.0000000     0.0000000     0.0000000
     0.0000000     0.0000000     0.0000000     0.0000000     0.0000000     0.0000000     0.0000000
     0.0000000     0.0000000     0.0000000     0.0000000     0.0000000     0.0000000     0.0000000
     0.0000000     0.0000000     0.0000000     0.0000000     0.0000000     0.0000000     0.0000000

 Ion:   44  E_soc:     -0.0003133
 l=   1
     0.0000000    -0.0000890    -0.0000071
    -0.0000890     0.0000000    -0.0000605
    -0.0000071    -0.0000605     0.0000000
 l=   2
     0.0000000     0.0000000     0.0000000     0.0000000     0.0000000
     0.0000000     0.0000000     0.0000000     0.0000000     0.0000000
     0.0000000     0.0000000     0.0000000     0.0000000     0.0000000
     0.0000000     0.0000000     0.0000000     0.0000000     0.0000000
     0.0000000     0.0000000     0.0000000     0.0000000     0.0000000
 l=   3
     0.0000000     0.0000000     0.0000000     0.0000000     0.0000000     0.0000000     0.0000000
     0.0000000     0.0000000     0.0000000     0.0000000     0.0000000     0.0000000     0.0000000
     0.0000000     0.0000000     0.0000000     0.0000000     0.0000000     0.0000000     0.0000000
     0.0000000     0.0000000     0.0000000     0.0000000     0.0000000     0.0000000     0.0000000
     0.0000000     0.0000000     0.0000000     0.0000000     0.0000000     0.0000000     0.0000000
     0.0000000     0.0000000     0.0000000     0.0000000     0.0000000     0.0000000     0.0000000
     0.0000000     0.0000000     0.0000000     0.0000000     0.0000000     0.0000000     0.0000000

 Ion:   45  E_soc:     -0.0003131
 l=   1
     0.0000000    -0.0000890    -0.0000071
    -0.0000890     0.0000000    -0.0000605
    -0.0000071    -0.0000605     0.0000000
 l=   2
     0.0000000     0.0000000     0.0000000     0.0000000     0.0000000
     0.0000000     0.0000000     0.0000000     0.0000000     0.0000000
     0.0000000     0.0000000     0.0000000     0.0000000     0.0000000
     0.0000000     0.0000000     0.0000000     0.0000000     0.0000000
     0.0000000     0.0000000     0.0000000     0.0000000     0.0000000
 l=   3
     0.0000000     0.0000000     0.0000000     0.0000000     0.0000000     0.0000000     0.0000000
     0.0000000     0.0000000     0.0000000     0.0000000     0.0000000     0.0000000     0.0000000
     0.0000000     0.0000000     0.0000000     0.0000000     0.0000000     0.0000000     0.0000000
     0.0000000     0.0000000     0.0000000     0.0000000     0.0000000     0.0000000     0.0000000
     0.0000000     0.0000000     0.0000000     0.0000000     0.0000000     0.0000000     0.0000000
     0.0000000     0.0000000     0.0000000     0.0000000     0.0000000     0.0000000     0.0000000
     0.0000000     0.0000000     0.0000000     0.0000000     0.0000000     0.0000000     0.0000000

 Ion:   46  E_soc:     -0.0003134
 l=   1
     0.0000000    -0.0000890    -0.0000072
    -0.0000890     0.0000000    -0.0000605
    -0.0000072    -0.0000605     0.0000000
 l=   2
     0.0000000     0.0000000     0.0000000     0.0000000     0.0000000
     0.0000000     0.0000000     0.0000000     0.0000000     0.0000000
     0.0000000     0.0000000     0.0000000     0.0000000     0.0000000
     0.0000000     0.0000000     0.0000000     0.0000000     0.0000000
     0.0000000     0.0000000     0.0000000     0.0000000     0.0000000
 l=   3
     0.0000000     0.0000000     0.0000000     0.0000000     0.0000000     0.0000000     0.0000000
     0.0000000     0.0000000     0.0000000     0.0000000     0.0000000     0.0000000     0.0000000
     0.0000000     0.0000000     0.0000000     0.0000000     0.0000000     0.0000000     0.0000000
     0.0000000     0.0000000     0.0000000     0.0000000     0.0000000     0.0000000     0.0000000
     0.0000000     0.0000000     0.0000000     0.0000000     0.0000000     0.0000000     0.0000000
     0.0000000     0.0000000     0.0000000     0.0000000     0.0000000     0.0000000     0.0000000
     0.0000000     0.0000000     0.0000000     0.0000000     0.0000000     0.0000000     0.0000000

 Ion:   47  E_soc:     -0.0003133
 l=   1
     0.0000000    -0.0000890    -0.0000072
    -0.0000890     0.0000000    -0.0000605
    -0.0000072    -0.0000605     0.0000000
 l=   2
     0.0000000     0.0000000     0.0000000     0.0000000     0.0000000
     0.0000000     0.0000000     0.0000000     0.0000000     0.0000000
     0.0000000     0.0000000     0.0000000     0.0000000     0.0000000
     0.0000000     0.0000000     0.0000000     0.0000000     0.0000000
     0.0000000     0.0000000     0.0000000     0.0000000     0.0000000
 l=   3
     0.0000000     0.0000000     0.0000000     0.0000000     0.0000000     0.0000000     0.0000000
     0.0000000     0.0000000     0.0000000     0.0000000     0.0000000     0.0000000     0.0000000
     0.0000000     0.0000000     0.0000000     0.0000000     0.0000000     0.0000000     0.0000000
     0.0000000     0.0000000     0.0000000     0.0000000     0.0000000     0.0000000     0.0000000
     0.0000000     0.0000000     0.0000000     0.0000000     0.0000000     0.0000000     0.0000000
     0.0000000     0.0000000     0.0000000     0.0000000     0.0000000     0.0000000     0.0000000
     0.0000000     0.0000000     0.0000000     0.0000000     0.0000000     0.0000000     0.0000000

 Ion:   48  E_soc:     -0.0003131
 l=   1
     0.0000000    -0.0000890    -0.0000071
    -0.0000890     0.0000000    -0.0000604
    -0.0000071    -0.0000604     0.0000000
 l=   2
     0.0000000     0.0000000     0.0000000     0.0000000     0.0000000
     0.0000000     0.0000000     0.0000000     0.0000000     0.0000000
     0.0000000     0.0000000     0.0000000     0.0000000     0.0000000
     0.0000000     0.0000000     0.0000000     0.0000000     0.0000000
     0.0000000     0.0000000     0.0000000     0.0000000     0.0000000
 l=   3
     0.0000000     0.0000000     0.0000000     0.0000000     0.0000000     0.0000000     0.0000000
     0.0000000     0.0000000     0.0000000     0.0000000     0.0000000     0.0000000     0.0000000
     0.0000000     0.0000000     0.0000000     0.0000000     0.0000000     0.0000000     0.0000000
     0.0000000     0.0000000     0.0000000     0.0000000     0.0000000     0.0000000     0.0000000
     0.0000000     0.0000000     0.0000000     0.0000000     0.0000000     0.0000000     0.0000000
     0.0000000     0.0000000     0.0000000     0.0000000     0.0000000     0.0000000     0.0000000
     0.0000000     0.0000000     0.0000000     0.0000000     0.0000000     0.0000000     0.0000000
 BZINTS: Fermi energy:  4.603928;352.000000 electrons
         Band energy:***********;  BLOECHL correction: -0.001099

 total amount of memory used by VASP on root node   578118. kBytes
========================================================================

   base      :      30000. kBytes
   nonlr-proj:      42475. kBytes
   fftplans  :       6958. kBytes
   grid      :      63700. kBytes
   one-center:       2985. kBytes
   wavefun   :     432000. kBytes
 
  
  
 General timing and accounting informations for this job:
 ========================================================
  
                  Total CPU time used (sec):    26983.068
                            User time (sec):    26958.272
                          System time (sec):       24.795
                         Elapsed time (sec):    27064.257
  
                   Maximum memory used (kb):      975204.
                   Average memory used (kb):           0.
  
                          Minor page faults:      3057536
                          Major page faults:            0
                 Voluntary context switches:       285472
