  48  48   1   0
  0.1207903E+02  0.5363761E-09  0.5532560E-09  0.1953789E-08  0.5000000E-15
  1.000000000000000E-004
  CAR 
 "CRO_a"                                 
      8.00000000      2.00000000 5001      4.65377018      1.00000000
      2.000  0.5732E+02  0.2947E+03
      2.001  0.5791E+02  0.2948E+03
      2.002  0.5832E+02  0.2949E+03
      2.004  0.5820E+02  0.2949E+03
      2.005  0.5716E+02  0.2950E+03
      2.006  0.5580E+02  0.2951E+03
      2.007  0.5403E+02  0.2951E+03
      2.008  0.5223E+02  0.2952E+03
      2.010  0.5044E+02  0.2953E+03
      2.011  0.4892E+02  0.2953E+03
      2.012  0.4760E+02  0.2954E+03
      2.013  0.4644E+02  0.2954E+03
      2.014  0.4541E+02  0.2955E+03
      2.016  0.4445E+02  0.2956E+03
      2.017  0.4345E+02  0.2956E+03
      2.018  0.4250E+02  0.2957E+03
      2.019  0.4172E+02  0.2957E+03
      2.020  0.4110E+02  0.2958E+03
      2.022  0.4078E+02  0.2958E+03
      2.023  0.4084E+02  0.2959E+03
      2.024  0.4118E+02  0.2959E+03
      2.025  0.4203E+02  0.2960E+03
      2.026  0.4390E+02  0.2960E+03
      2.028  0.4615E+02  0.2961E+03
      2.029  0.4678E+02  0.2961E+03
      2.030  0.4576E+02  0.2962E+03
      2.031  0.4622E+02  0.2962E+03
      2.032  0.4667E+02  0.2963E+03
      2.034  0.4711E+02  0.2963E+03
      2.035  0.4825E+02  0.2964E+03
      2.036  0.4935E+02  0.2965E+03
      2.037  0.4926E+02  0.2965E+03
      2.038  0.4922E+02  0.2966E+03
      2.040  0.4924E+02  0.2966E+03
      2.041  0.4918E+02  0.2967E+03
      2.042  0.4897E+02  0.2968E+03
      2.043  0.4900E+02  0.2968E+03
      2.044  0.4866E+02  0.2969E+03
      2.046  0.4820E+02  0.2969E+03
      2.047  0.4802E+02  0.2970E+03
      2.048  0.4771E+02  0.2970E+03
      2.049  0.4719E+02  0.2971E+03
      2.050  0.4637E+02  0.2972E+03
      2.052  0.4549E+02  0.2972E+03
      2.053  0.4441E+02  0.2973E+03
      2.054  0.4361E+02  0.2973E+03
      2.055  0.4313E+02  0.2974E+03
      2.056  0.4258E+02  0.2974E+03
      2.058  0.4192E+02  0.2975E+03
      2.059  0.4136E+02  0.2975E+03
      2.060  0.4105E+02  0.2976E+03
      2.061  0.4087E+02  0.2976E+03
      2.062  0.4070E+02  0.2977E+03
      2.064  0.4080E+02  0.2977E+03
      2.065  0.4103E+02  0.2978E+03
      2.066  0.4160E+02  0.2978E+03
      2.067  0.4235E+02  0.2979E+03
      2.068  0.4323E+02  0.2979E+03
      2.070  0.4423E+02  0.2980E+03
      2.071  0.4532E+02  0.2980E+03
      2.072  0.4623E+02  0.2981E+03
      2.073  0.4674E+02  0.2981E+03
      2.074  0.4686E+02  0.2982E+03
      2.076  0.4679E+02  0.2983E+03
      2.077  0.4663E+02  0.2983E+03
      2.078  0.4640E+02  0.2984E+03
      2.079  0.4628E+02  0.2984E+03
      2.080  0.4677E+02  0.2985E+03
      2.082  0.4745E+02  0.2985E+03
      2.083  0.4760E+02  0.2986E+03
      2.084  0.4751E+02  0.2986E+03
      2.085  0.4689E+02  0.2987E+03
      2.086  0.4757E+02  0.2988E+03
      2.088  0.4903E+02  0.2988E+03
      2.089  0.5020E+02  0.2989E+03
      2.090  0.5182E+02  0.2989E+03
      2.091  0.5459E+02  0.2990E+03
      2.092  0.5714E+02  0.2991E+03
      2.094  0.5865E+02  0.2991E+03
      2.095  0.5989E+02  0.2992E+03
      2.096  0.6164E+02  0.2993E+03
      2.097  0.6378E+02  0.2994E+03
      2.098  0.6504E+02  0.2994E+03
      2.100  0.6572E+02  0.2995E+03
      2.101  0.6609E+02  0.2996E+03
      2.102  0.6599E+02  0.2997E+03
      2.103  0.6582E+02  0.2997E+03
      2.104  0.6533E+02  0.2998E+03
      2.106  0.6468E+02  0.2999E+03
      2.107  0.6426E+02  0.3000E+03
      2.108  0.6407E+02  0.3001E+03
      2.109  0.6365E+02  0.3001E+03
      2.110  0.6253E+02  0.3002E+03
      2.112  0.6010E+02  0.3003E+03
      2.113  0.5779E+02  0.3004E+03
      2.114  0.5619E+02  0.3004E+03
      2.115  0.5466E+02  0.3005E+03
      2.116  0.5329E+02  0.3006E+03
      2.118  0.5156E+02  0.3006E+03
      2.119  0.4962E+02  0.3007E+03
      2.120  0.4827E+02  0.3007E+03
      2.121  0.4708E+02  0.3008E+03
      2.122  0.4588E+02  0.3009E+03
      2.124  0.4434E+02  0.3009E+03
      2.125  0.4334E+02  0.3010E+03
      2.126  0.4307E+02  0.3010E+03
      2.127  0.4314E+02  0.3011E+03
      2.128  0.4320E+02  0.3011E+03
      2.130  0.4291E+02  0.3012E+03
      2.131  0.4272E+02  0.3012E+03
      2.132  0.4258E+02  0.3013E+03
      2.133  0.4249E+02  0.3013E+03
      2.134  0.4310E+02  0.3014E+03
      2.136  0.4438E+02  0.3014E+03
      2.137  0.4601E+02  0.3015E+03
      2.138  0.4723E+02  0.3015E+03
      2.139  0.4819E+02  0.3016E+03
      2.140  0.4929E+02  0.3016E+03
      2.142  0.4963E+02  0.3017E+03
      2.143  0.4995E+02  0.3018E+03
      2.144  0.5061E+02  0.3018E+03
      2.145  0.5158E+02  0.3019E+03
      2.146  0.5327E+02  0.3020E+03
      2.148  0.5479E+02  0.3020E+03
      2.149  0.5559E+02  0.3021E+03
      2.150  0.5671E+02  0.3022E+03
      2.151  0.5801E+02  0.3022E+03
      2.152  0.5900E+02  0.3023E+03
      2.154  0.5957E+02  0.3024E+03
      2.155  0.5955E+02  0.3024E+03
      2.156  0.5920E+02  0.3025E+03
      2.157  0.5911E+02  0.3026E+03
      2.158  0.5943E+02  0.3026E+03
      2.160  0.6034E+02  0.3027E+03
      2.161  0.6001E+02  0.3028E+03
      2.162  0.5981E+02  0.3029E+03
      2.163  0.6026E+02  0.3029E+03
      2.164  0.6099E+02  0.3030E+03
      2.166  0.5989E+02  0.3031E+03
      2.167  0.5814E+02  0.3032E+03
      2.168  0.5526E+02  0.3032E+03
      2.169  0.5215E+02  0.3033E+03
      2.170  0.4910E+02  0.3033E+03
      2.172  0.4766E+02  0.3034E+03
      2.173  0.4661E+02  0.3035E+03
      2.174  0.4571E+02  0.3035E+03
      2.175  0.4620E+02  0.3036E+03
      2.176  0.4750E+02  0.3036E+03
      2.178  0.4882E+02  0.3037E+03
      2.179  0.5044E+02  0.3037E+03
      2.180  0.5289E+02  0.3038E+03
      2.181  0.5566E+02  0.3039E+03
      2.182  0.5839E+02  0.3039E+03
      2.184  0.6118E+02  0.3040E+03
      2.185  0.6435E+02  0.3041E+03
      2.186  0.6802E+02  0.3042E+03
      2.187  0.7015E+02  0.3042E+03
      2.188  0.7101E+02  0.3043E+03
      2.190  0.7177E+02  0.3044E+03
      2.191  0.7215E+02  0.3045E+03
      2.192  0.7142E+02  0.3046E+03
      2.193  0.6981E+02  0.3047E+03
      2.194  0.6863E+02  0.3048E+03
      2.196  0.6809E+02  0.3048E+03
      2.197  0.6759E+02  0.3049E+03
      2.198  0.6619E+02  0.3050E+03
      2.199  0.6288E+02  0.3051E+03
      2.200  0.5979E+02  0.3052E+03
      2.202  0.5724E+02  0.3052E+03
      2.203  0.5437E+02  0.3053E+03
      2.204  0.5218E+02  0.3054E+03
      2.205  0.5055E+02  0.3054E+03
      2.206  0.5034E+02  0.3055E+03
      2.208  0.5028E+02  0.3055E+03
      2.209  0.5078E+02  0.3056E+03
      2.210  0.5088E+02  0.3057E+03
      2.211  0.5162E+02  0.3057E+03
      2.212  0.5224E+02  0.3058E+03
      2.214  0.5294E+02  0.3058E+03
      2.215  0.5479E+02  0.3059E+03
      2.216  0.5502E+02  0.3060E+03
      2.217  0.5610E+02  0.3060E+03
      2.218  0.5668E+02  0.3061E+03
      2.220  0.5736E+02  0.3062E+03
      2.221  0.5809E+02  0.3062E+03
      2.222  0.5845E+02  0.3063E+03
      2.223  0.5995E+02  0.3064E+03
      2.224  0.6094E+02  0.3065E+03
      2.226  0.6352E+02  0.3065E+03
      2.227  0.6417E+02  0.3066E+03
      2.228  0.6272E+02  0.3067E+03
      2.229  0.6411E+02  0.3068E+03
      2.230  0.6529E+02  0.3068E+03
      2.232  0.6533E+02  0.3069E+03
      2.233  0.6768E+02  0.3070E+03
      2.234  0.7022E+02  0.3071E+03
      2.235  0.7192E+02  0.3072E+03
      2.236  0.7384E+02  0.3073E+03
      2.238  0.7583E+02  0.3073E+03
      2.239  0.7858E+02  0.3074E+03
      2.240  0.8202E+02  0.3075E+03
      2.241  0.8497E+02  0.3076E+03
      2.242  0.8772E+02  0.3077E+03
      2.244  0.8981E+02  0.3078E+03
      2.245  0.8993E+02  0.3080E+03
      2.246  0.8872E+02  0.3081E+03
      2.247  0.8668E+02  0.3082E+03
      2.248  0.8170E+02  0.3083E+03
      2.250  0.7741E+02  0.3084E+03
      2.251  0.7462E+02  0.3085E+03
      2.252  0.7220E+02  0.3085E+03
      2.253  0.6973E+02  0.3086E+03
      2.254  0.6825E+02  0.3087E+03
      2.256  0.6852E+02  0.3088E+03
      2.257  0.7626E+02  0.3089E+03
      2.258  0.8325E+02  0.3090E+03
      2.259  0.8531E+02  0.3091E+03
      2.260  0.8600E+02  0.3092E+03
      2.262  0.8865E+02  0.3093E+03
      2.263  0.8699E+02  0.3094E+03
      2.264  0.8338E+02  0.3095E+03
      2.265  0.7856E+02  0.3096E+03
      2.266  0.7313E+02  0.3097E+03
      2.268  0.6714E+02  0.3098E+03
      2.269  0.6223E+02  0.3098E+03
      2.270  0.5895E+02  0.3099E+03
      2.271  0.5688E+02  0.3100E+03
      2.272  0.5502E+02  0.3101E+03
      2.274  0.5223E+02  0.3101E+03
      2.275  0.4972E+02  0.3102E+03
      2.276  0.4809E+02  0.3102E+03
      2.277  0.4692E+02  0.3103E+03
      2.278  0.4636E+02  0.3103E+03
      2.280  0.4659E+02  0.3104E+03
      2.281  0.4741E+02  0.3105E+03
      2.282  0.4911E+02  0.3105E+03
      2.283  0.5139E+02  0.3106E+03
      2.284  0.5408E+02  0.3106E+03
      2.286  0.5711E+02  0.3107E+03
      2.287  0.6038E+02  0.3108E+03
      2.288  0.6289E+02  0.3109E+03
      2.289  0.6511E+02  0.3109E+03
      2.290  0.6444E+02  0.3110E+03
      2.292  0.6193E+02  0.3111E+03
      2.293  0.5966E+02  0.3112E+03
      2.294  0.5750E+02  0.3112E+03
      2.295  0.5479E+02  0.3113E+03
      2.296  0.5177E+02  0.3114E+03
      2.298  0.4921E+02  0.3114E+03
      2.299  0.4684E+02  0.3115E+03
      2.300  0.4410E+02  0.3115E+03
      2.301  0.4205E+02  0.3116E+03
      2.302  0.4032E+02  0.3116E+03
      2.304  0.3872E+02  0.3117E+03
      2.305  0.3700E+02  0.3117E+03
      2.306  0.3536E+02  0.3118E+03
      2.307  0.3438E+02  0.3118E+03
      2.308  0.3379E+02  0.3118E+03
      2.310  0.3340E+02  0.3119E+03
      2.311  0.3294E+02  0.3119E+03
      2.312  0.3270E+02  0.3120E+03
      2.313  0.3267E+02  0.3120E+03
      2.314  0.3205E+02  0.3120E+03
      2.316  0.3194E+02  0.3121E+03
      2.317  0.3195E+02  0.3121E+03
      2.318  0.3208E+02  0.3122E+03
      2.319  0.3229E+02  0.3122E+03
      2.320  0.3259E+02  0.3122E+03
      2.322  0.3313E+02  0.3123E+03
      2.323  0.3392E+02  0.3123E+03
      2.324  0.3453E+02  0.3124E+03
      2.325  0.3522E+02  0.3124E+03
      2.326  0.3593E+02  0.3124E+03
      2.328  0.3746E+02  0.3125E+03
      2.329  0.3922E+02  0.3125E+03
      2.330  0.4057E+02  0.3126E+03
      2.331  0.4158E+02  0.3126E+03
      2.332  0.4234E+02  0.3127E+03
      2.334  0.4220E+02  0.3127E+03
      2.335  0.4178E+02  0.3128E+03
      2.336  0.4138E+02  0.3128E+03
      2.337  0.4101E+02  0.3129E+03
      2.338  0.4063E+02  0.3129E+03
      2.340  0.4029E+02  0.3130E+03
      2.341  0.3992E+02  0.3130E+03
      2.342  0.3949E+02  0.3131E+03
      2.343  0.3931E+02  0.3131E+03
      2.344  0.3921E+02  0.3132E+03
      2.346  0.3898E+02  0.3132E+03
      2.347  0.3849E+02  0.3133E+03
      2.348  0.3764E+02  0.3133E+03
      2.349  0.3656E+02  0.3134E+03
      2.350  0.3580E+02  0.3134E+03
      2.352  0.3527E+02  0.3134E+03
      2.353  0.3456E+02  0.3135E+03
      2.354  0.3367E+02  0.3135E+03
      2.355  0.3264E+02  0.3136E+03
      2.356  0.3150E+02  0.3136E+03
      2.358  0.3025E+02  0.3136E+03
      2.359  0.2879E+02  0.3137E+03
      2.360  0.2739E+02  0.3137E+03
      2.361  0.2614E+02  0.3137E+03
      2.362  0.2504E+02  0.3138E+03
      2.364  0.2416E+02  0.3138E+03
      2.365  0.2341E+02  0.3138E+03
      2.366  0.2271E+02  0.3139E+03
      2.367  0.2205E+02  0.3139E+03
      2.368  0.2143E+02  0.3139E+03
      2.370  0.2076E+02  0.3139E+03
      2.371  0.1999E+02  0.3140E+03
      2.372  0.1911E+02  0.3140E+03
      2.373  0.1799E+02  0.3140E+03
      2.374  0.1723E+02  0.3140E+03
      2.376  0.1675E+02  0.3140E+03
      2.377  0.1648E+02  0.3141E+03
      2.378  0.1631E+02  0.3141E+03
      2.379  0.1615E+02  0.3141E+03
      2.380  0.1602E+02  0.3141E+03
      2.382  0.1589E+02  0.3141E+03
      2.383  0.1578E+02  0.3142E+03
      2.384  0.1567E+02  0.3142E+03
      2.385  0.1560E+02  0.3142E+03
      2.386  0.1561E+02  0.3142E+03
      2.388  0.1568E+02  0.3142E+03
      2.389  0.1581E+02  0.3143E+03
      2.390  0.1601E+02  0.3143E+03
      2.391  0.1627E+02  0.3143E+03
      2.392  0.1660E+02  0.3143E+03
      2.394  0.1751E+02  0.3143E+03
      2.395  0.1964E+02  0.3144E+03
      2.396  0.2095E+02  0.3144E+03
      2.397  0.2284E+02  0.3144E+03
      2.398  0.2419E+02  0.3144E+03
      2.400  0.2565E+02  0.3145E+03
      2.401  0.2666E+02  0.3145E+03
      2.402  0.2734E+02  0.3145E+03
      2.403  0.2790E+02  0.3146E+03
      2.404  0.2881E+02  0.3146E+03
      2.406  0.3015E+02  0.3146E+03
      2.407  0.3116E+02  0.3147E+03
      2.408  0.2949E+02  0.3147E+03
      2.409  0.2974E+02  0.3147E+03
      2.410  0.3042E+02  0.3148E+03
      2.412  0.3127E+02  0.3148E+03
      2.413  0.3153E+02  0.3149E+03
      2.414  0.3146E+02  0.3149E+03
      2.415  0.3119E+02  0.3149E+03
      2.416  0.3084E+02  0.3150E+03
      2.418  0.3006E+02  0.3150E+03
      2.419  0.2944E+02  0.3150E+03
      2.420  0.2879E+02  0.3151E+03
      2.421  0.2823E+02  0.3151E+03
      2.422  0.2783E+02  0.3151E+03
      2.424  0.2743E+02  0.3152E+03
      2.425  0.2710E+02  0.3152E+03
      2.426  0.2681E+02  0.3152E+03
      2.427  0.2653E+02  0.3153E+03
      2.428  0.2620E+02  0.3153E+03
      2.430  0.2589E+02  0.3153E+03
      2.431  0.2553E+02  0.3154E+03
      2.432  0.2558E+02  0.3154E+03
      2.433  0.2593E+02  0.3154E+03
      2.434  0.2628E+02  0.3155E+03
      2.436  0.2684E+02  0.3155E+03
      2.437  0.2738E+02  0.3155E+03
      2.438  0.2772E+02  0.3156E+03
      2.439  0.2797E+02  0.3156E+03
      2.440  0.2828E+02  0.3156E+03
      2.442  0.2830E+02  0.3157E+03
      2.443  0.2805E+02  0.3157E+03
      2.444  0.2752E+02  0.3157E+03
      2.445  0.2687E+02  0.3158E+03
      2.446  0.2618E+02  0.3158E+03
      2.448  0.2546E+02  0.3158E+03
      2.449  0.2472E+02  0.3158E+03
      2.450  0.2399E+02  0.3159E+03
      2.451  0.2326E+02  0.3159E+03
      2.452  0.2254E+02  0.3159E+03
      2.454  0.2183E+02  0.3160E+03
      2.455  0.2113E+02  0.3160E+03
      2.456  0.2053E+02  0.3160E+03
      2.457  0.2008E+02  0.3160E+03
      2.458  0.1970E+02  0.3161E+03
      2.460  0.1934E+02  0.3161E+03
      2.461  0.1901E+02  0.3161E+03
      2.462  0.1876E+02  0.3161E+03
      2.463  0.1857E+02  0.3162E+03
      2.464  0.1844E+02  0.3162E+03
      2.466  0.1836E+02  0.3162E+03
      2.467  0.1832E+02  0.3162E+03
      2.468  0.1829E+02  0.3162E+03
      2.469  0.1829E+02  0.3163E+03
      2.470  0.1835E+02  0.3163E+03
      2.472  0.1857E+02  0.3163E+03
      2.473  0.1886E+02  0.3163E+03
      2.474  0.1908E+02  0.3163E+03
      2.475  0.1860E+02  0.3164E+03
      2.476  0.1844E+02  0.3164E+03
      2.478  0.1855E+02  0.3164E+03
      2.479  0.1860E+02  0.3164E+03
      2.480  0.1865E+02  0.3165E+03
      2.481  0.1875E+02  0.3165E+03
      2.482  0.1900E+02  0.3165E+03
      2.484  0.1948E+02  0.3165E+03
      2.485  0.2012E+02  0.3166E+03
      2.486  0.2096E+02  0.3166E+03
      2.487  0.2187E+02  0.3166E+03
      2.488  0.2260E+02  0.3166E+03
      2.490  0.2352E+02  0.3167E+03
      2.491  0.2486E+02  0.3167E+03
      2.492  0.2673E+02  0.3167E+03
      2.493  0.2935E+02  0.3168E+03
      2.494  0.3281E+02  0.3168E+03
      2.496  0.3624E+02  0.3168E+03
      2.497  0.3889E+02  0.3169E+03
      2.498  0.4096E+02  0.3169E+03
      2.499  0.4289E+02  0.3170E+03
      2.500  0.4469E+02  0.3170E+03
      2.502  0.4631E+02  0.3171E+03
      2.503  0.4774E+02  0.3171E+03
      2.504  0.4853E+02  0.3172E+03
      2.505  0.4896E+02  0.3173E+03
      2.506  0.4981E+02  0.3173E+03
      2.508  0.5111E+02  0.3174E+03
      2.509  0.5262E+02  0.3174E+03
      2.510  0.5378E+02  0.3175E+03
      2.511  0.5467E+02  0.3176E+03
      2.512  0.5487E+02  0.3176E+03
      2.514  0.5092E+02  0.3177E+03
      2.515  0.4502E+02  0.3178E+03
      2.516  0.4285E+02  0.3178E+03
      2.517  0.4334E+02  0.3179E+03
      2.518  0.4405E+02  0.3179E+03
      2.520  0.4424E+02  0.3180E+03
      2.521  0.4423E+02  0.3180E+03
      2.522  0.4420E+02  0.3181E+03
      2.523  0.4360E+02  0.3181E+03
      2.524  0.4219E+02  0.3182E+03
      2.526  0.4058E+02  0.3182E+03
      2.527  0.3937E+02  0.3183E+03
      2.528  0.3886E+02  0.3183E+03
      2.529  0.3848E+02  0.3184E+03
      2.530  0.3803E+02  0.3184E+03
      2.532  0.3761E+02  0.3185E+03
      2.533  0.3745E+02  0.3185E+03
      2.534  0.3743E+02  0.3185E+03
      2.535  0.3753E+02  0.3186E+03
      2.536  0.3766E+02  0.3186E+03
      2.538  0.3780E+02  0.3187E+03
      2.539  0.3794E+02  0.3187E+03
      2.540  0.3803E+02  0.3188E+03
      2.541  0.3799E+02  0.3188E+03
      2.542  0.3781E+02  0.3189E+03
      2.544  0.3757E+02  0.3189E+03
      2.545  0.3729E+02  0.3190E+03
      2.546  0.3927E+02  0.3190E+03
      2.547  0.4162E+02  0.3190E+03
      2.548  0.4108E+02  0.3191E+03
      2.550  0.3950E+02  0.3191E+03
      2.551  0.3564E+02  0.3192E+03
      2.552  0.3475E+02  0.3192E+03
      2.553  0.3451E+02  0.3193E+03
      2.554  0.3465E+02  0.3193E+03
      2.556  0.3504E+02  0.3194E+03
      2.557  0.3556E+02  0.3194E+03
      2.558  0.3603E+02  0.3194E+03
      2.559  0.3609E+02  0.3195E+03
      2.560  0.3572E+02  0.3195E+03
      2.562  0.3467E+02  0.3196E+03
      2.563  0.3312E+02  0.3196E+03
      2.564  0.3134E+02  0.3197E+03
      2.565  0.2941E+02  0.3197E+03
      2.566  0.2735E+02  0.3197E+03
      2.568  0.2548E+02  0.3198E+03
      2.569  0.2389E+02  0.3198E+03
      2.570  0.2291E+02  0.3198E+03
      2.571  0.2261E+02  0.3198E+03
      2.572  0.2263E+02  0.3199E+03
      2.574  0.2280E+02  0.3199E+03
      2.575  0.2229E+02  0.3199E+03
      2.576  0.2118E+02  0.3199E+03
      2.577  0.2011E+02  0.3200E+03
      2.578  0.1909E+02  0.3200E+03
      2.580  0.1810E+02  0.3200E+03
      2.581  0.1766E+02  0.3200E+03
      2.582  0.1725E+02  0.3201E+03
      2.583  0.1692E+02  0.3201E+03
      2.584  0.1644E+02  0.3201E+03
      2.586  0.1578E+02  0.3201E+03
      2.587  0.1496E+02  0.3201E+03
      2.588  0.1398E+02  0.3202E+03
      2.589  0.1295E+02  0.3202E+03
      2.590  0.1198E+02  0.3202E+03
      2.592  0.1084E+02  0.3202E+03
      2.593  0.1012E+02  0.3202E+03
      2.594  0.9532E+01  0.3202E+03
      2.595  0.9035E+01  0.3202E+03
      2.596  0.8582E+01  0.3202E+03
      2.598  0.8170E+01  0.3203E+03
      2.599  0.7799E+01  0.3203E+03
      2.600  0.7476E+01  0.3203E+03
      2.601  0.7213E+01  0.3203E+03
      2.602  0.7011E+01  0.3203E+03
      2.604  0.6843E+01  0.3203E+03
      2.605  0.6678E+01  0.3203E+03
      2.606  0.6513E+01  0.3203E+03
      2.607  0.6348E+01  0.3203E+03
      2.608  0.6184E+01  0.3203E+03
      2.610  0.5979E+01  0.3203E+03
      2.611  0.5680E+01  0.3203E+03
      2.612  0.5284E+01  0.3204E+03
      2.613  0.4753E+01  0.3204E+03
      2.614  0.4324E+01  0.3204E+03
      2.616  0.3974E+01  0.3204E+03
      2.617  0.3567E+01  0.3204E+03
      2.618  0.3139E+01  0.3204E+03
      2.619  0.2706E+01  0.3204E+03
      2.620  0.2379E+01  0.3204E+03
      2.622  0.2182E+01  0.3204E+03
      2.623  0.2105E+01  0.3204E+03
      2.624  0.2092E+01  0.3204E+03
      2.625  0.2091E+01  0.3204E+03
      2.626  0.2089E+01  0.3204E+03
      2.628  0.2088E+01  0.3204E+03
      2.629  0.2087E+01  0.3204E+03
      2.630  0.2085E+01  0.3204E+03
      2.631  0.2084E+01  0.3204E+03
      2.632  0.2082E+01  0.3204E+03
      2.634  0.2081E+01  0.3204E+03
      2.635  0.2079E+01  0.3204E+03
      2.636  0.2078E+01  0.3204E+03
      2.637  0.2076E+01  0.3204E+03
      2.638  0.2074E+01  0.3204E+03
      2.640  0.2072E+01  0.3204E+03
      2.641  0.2069E+01  0.3204E+03
      2.642  0.2066E+01  0.3204E+03
      2.643  0.2063E+01  0.3204E+03
      2.644  0.2061E+01  0.3204E+03
      2.646  0.2058E+01  0.3204E+03
      2.647  0.2055E+01  0.3204E+03
      2.648  0.2052E+01  0.3204E+03
      2.649  0.2050E+01  0.3204E+03
      2.650  0.2047E+01  0.3204E+03
      2.652  0.2044E+01  0.3204E+03
      2.653  0.2041E+01  0.3204E+03
      2.654  0.2039E+01  0.3205E+03
      2.655  0.2036E+01  0.3205E+03
      2.656  0.2033E+01  0.3205E+03
      2.658  0.2031E+01  0.3205E+03
      2.659  0.2028E+01  0.3205E+03
      2.660  0.2025E+01  0.3205E+03
      2.661  0.2022E+01  0.3205E+03
      2.662  0.2020E+01  0.3205E+03
      2.664  0.2017E+01  0.3205E+03
      2.665  0.2014E+01  0.3205E+03
      2.666  0.2011E+01  0.3205E+03
      2.667  0.2009E+01  0.3205E+03
      2.668  0.2006E+01  0.3205E+03
      2.670  0.2003E+01  0.3205E+03
      2.671  0.2000E+01  0.3205E+03
      2.672  0.1998E+01  0.3205E+03
      2.673  0.1995E+01  0.3205E+03
      2.674  0.1992E+01  0.3205E+03
      2.676  0.1989E+01  0.3205E+03
      2.677  0.1987E+01  0.3205E+03
      2.678  0.1984E+01  0.3205E+03
      2.679  0.1981E+01  0.3205E+03
      2.680  0.1978E+01  0.3205E+03
      2.682  0.1976E+01  0.3205E+03
      2.683  0.1973E+01  0.3205E+03
      2.684  0.1970E+01  0.3205E+03
      2.685  0.1968E+01  0.3205E+03
      2.686  0.1965E+01  0.3205E+03
      2.688  0.1962E+01  0.3205E+03
      2.689  0.1959E+01  0.3205E+03
      2.690  0.1957E+01  0.3205E+03
      2.691  0.1954E+01  0.3205E+03
      2.692  0.1951E+01  0.3205E+03
      2.694  0.1948E+01  0.3205E+03
      2.695  0.1946E+01  0.3205E+03
      2.696  0.1943E+01  0.3205E+03
      2.697  0.1940E+01  0.3205E+03
      2.698  0.1937E+01  0.3205E+03
      2.700  0.1935E+01  0.3205E+03
      2.701  0.1932E+01  0.3205E+03
      2.702  0.1929E+01  0.3205E+03
      2.703  0.1926E+01  0.3205E+03
      2.704  0.1924E+01  0.3206E+03
      2.706  0.1921E+01  0.3206E+03
      2.707  0.1919E+01  0.3206E+03
      2.708  0.1917E+01  0.3206E+03
      2.709  0.1914E+01  0.3206E+03
      2.710  0.1912E+01  0.3206E+03
      2.712  0.1909E+01  0.3206E+03
      2.713  0.1906E+01  0.3206E+03
      2.714  0.1904E+01  0.3206E+03
      2.715  0.1902E+01  0.3206E+03
      2.716  0.1900E+01  0.3206E+03
      2.718  0.1898E+01  0.3206E+03
      2.719  0.1897E+01  0.3206E+03
      2.720  0.1897E+01  0.3206E+03
      2.721  0.1896E+01  0.3206E+03
      2.722  0.1896E+01  0.3206E+03
      2.724  0.1895E+01  0.3206E+03
      2.725  0.1895E+01  0.3206E+03
      2.726  0.1894E+01  0.3206E+03
      2.727  0.1894E+01  0.3206E+03
      2.728  0.1893E+01  0.3206E+03
      2.730  0.1893E+01  0.3206E+03
      2.731  0.1892E+01  0.3206E+03
      2.732  0.1892E+01  0.3206E+03
      2.733  0.1891E+01  0.3206E+03
      2.734  0.1891E+01  0.3206E+03
      2.736  0.1890E+01  0.3206E+03
      2.737  0.1890E+01  0.3206E+03
      2.738  0.1889E+01  0.3206E+03
      2.739  0.1889E+01  0.3206E+03
      2.740  0.1888E+01  0.3206E+03
      2.742  0.1888E+01  0.3206E+03
      2.743  0.1889E+01  0.3206E+03
      2.744  0.1892E+01  0.3206E+03
      2.745  0.1895E+01  0.3206E+03
      2.746  0.1898E+01  0.3206E+03
      2.748  0.1902E+01  0.3206E+03
      2.749  0.1905E+01  0.3206E+03
      2.750  0.1908E+01  0.3206E+03
      2.751  0.1911E+01  0.3206E+03
      2.752  0.1914E+01  0.3206E+03
      2.754  0.1917E+01  0.3206E+03
      2.755  0.1920E+01  0.3206E+03
      2.756  0.1923E+01  0.3207E+03
      2.757  0.1926E+01  0.3207E+03
      2.758  0.1929E+01  0.3207E+03
      2.760  0.1933E+01  0.3207E+03
      2.761  0.1936E+01  0.3207E+03
      2.762  0.1939E+01  0.3207E+03
      2.763  0.1942E+01  0.3207E+03
      2.764  0.1945E+01  0.3207E+03
      2.766  0.1948E+01  0.3207E+03
      2.767  0.1951E+01  0.3207E+03
      2.768  0.1954E+01  0.3207E+03
      2.769  0.1957E+01  0.3207E+03
      2.770  0.1960E+01  0.3207E+03
      2.772  0.1964E+01  0.3207E+03
      2.773  0.1967E+01  0.3207E+03
      2.774  0.1970E+01  0.3207E+03
      2.775  0.1973E+01  0.3207E+03
      2.776  0.1976E+01  0.3207E+03
      2.778  0.1979E+01  0.3207E+03
      2.779  0.1982E+01  0.3207E+03
      2.780  0.1985E+01  0.3207E+03
      2.781  0.1988E+01  0.3207E+03
      2.782  0.1992E+01  0.3207E+03
      2.784  0.1995E+01  0.3207E+03
      2.785  0.1998E+01  0.3207E+03
      2.786  0.2001E+01  0.3207E+03
      2.787  0.2004E+01  0.3207E+03
      2.788  0.2007E+01  0.3207E+03
      2.790  0.2010E+01  0.3207E+03
      2.791  0.2013E+01  0.3207E+03
      2.792  0.2016E+01  0.3207E+03
      2.793  0.2019E+01  0.3207E+03
      2.794  0.2023E+01  0.3207E+03
      2.796  0.2026E+01  0.3207E+03
      2.797  0.2029E+01  0.3207E+03
      2.798  0.2032E+01  0.3207E+03
      2.799  0.2035E+01  0.3207E+03
      2.800  0.2038E+01  0.3207E+03
      2.802  0.2041E+01  0.3207E+03
      2.803  0.2044E+01  0.3207E+03
      2.804  0.2047E+01  0.3207E+03
      2.805  0.2050E+01  0.3207E+03
      2.806  0.2054E+01  0.3208E+03
      2.808  0.2057E+01  0.3208E+03
      2.809  0.2060E+01  0.3208E+03
      2.810  0.2063E+01  0.3208E+03
      2.811  0.2066E+01  0.3208E+03
      2.812  0.2069E+01  0.3208E+03
      2.814  0.2072E+01  0.3208E+03
      2.815  0.2076E+01  0.3208E+03
      2.816  0.2080E+01  0.3208E+03
      2.817  0.2084E+01  0.3208E+03
      2.818  0.2089E+01  0.3208E+03
      2.820  0.2093E+01  0.3208E+03
      2.821  0.2098E+01  0.3208E+03
      2.822  0.2102E+01  0.3208E+03
      2.823  0.2107E+01  0.3208E+03
      2.824  0.2112E+01  0.3208E+03
      2.826  0.2116E+01  0.3208E+03
      2.827  0.2121E+01  0.3208E+03
      2.828  0.2125E+01  0.3208E+03
      2.829  0.2130E+01  0.3208E+03
      2.830  0.2135E+01  0.3208E+03
      2.832  0.2139E+01  0.3208E+03
      2.833  0.2144E+01  0.3208E+03
      2.834  0.2149E+01  0.3208E+03
      2.835  0.2154E+01  0.3208E+03
      2.836  0.2159E+01  0.3208E+03
      2.838  0.2164E+01  0.3208E+03
      2.839  0.2169E+01  0.3208E+03
      2.840  0.2175E+01  0.3208E+03
      2.841  0.2180E+01  0.3208E+03
      2.842  0.2185E+01  0.3208E+03
      2.844  0.2191E+01  0.3208E+03
      2.845  0.2196E+01  0.3208E+03
      2.846  0.2201E+01  0.3208E+03
      2.847  0.2207E+01  0.3208E+03
      2.848  0.2212E+01  0.3208E+03
      2.850  0.2217E+01  0.3208E+03
      2.851  0.2222E+01  0.3208E+03
      2.852  0.2228E+01  0.3208E+03
      2.853  0.2233E+01  0.3209E+03
      2.854  0.2238E+01  0.3209E+03
      2.856  0.2244E+01  0.3209E+03
      2.857  0.2249E+01  0.3209E+03
      2.858  0.2254E+01  0.3209E+03
      2.859  0.2260E+01  0.3209E+03
      2.860  0.2265E+01  0.3209E+03
      2.862  0.2270E+01  0.3209E+03
      2.863  0.2275E+01  0.3209E+03
      2.864  0.2281E+01  0.3209E+03
      2.865  0.2286E+01  0.3209E+03
      2.866  0.2291E+01  0.3209E+03
      2.868  0.2297E+01  0.3209E+03
      2.869  0.2302E+01  0.3209E+03
      2.870  0.2307E+01  0.3209E+03
      2.871  0.2312E+01  0.3209E+03
      2.872  0.2318E+01  0.3209E+03
      2.874  0.2323E+01  0.3209E+03
      2.875  0.2328E+01  0.3209E+03
      2.876  0.2334E+01  0.3209E+03
      2.877  0.2339E+01  0.3209E+03
      2.878  0.2344E+01  0.3209E+03
      2.880  0.2350E+01  0.3209E+03
      2.881  0.2355E+01  0.3209E+03
      2.882  0.2360E+01  0.3209E+03
      2.883  0.2365E+01  0.3209E+03
      2.884  0.2371E+01  0.3209E+03
      2.886  0.2376E+01  0.3209E+03
      2.887  0.2381E+01  0.3209E+03
      2.888  0.2387E+01  0.3209E+03
      2.889  0.2393E+01  0.3209E+03
      2.890  0.2398E+01  0.3209E+03
      2.892  0.2404E+01  0.3209E+03
      2.893  0.2410E+01  0.3209E+03
      2.894  0.2415E+01  0.3209E+03
      2.895  0.2421E+01  0.3209E+03
      2.896  0.2427E+01  0.3210E+03
      2.898  0.2432E+01  0.3210E+03
      2.899  0.2438E+01  0.3210E+03
      2.900  0.2444E+01  0.3210E+03
      2.901  0.2449E+01  0.3210E+03
      2.902  0.2455E+01  0.3210E+03
      2.904  0.2461E+01  0.3210E+03
      2.905  0.2466E+01  0.3210E+03
      2.906  0.2472E+01  0.3210E+03
      2.907  0.2478E+01  0.3210E+03
      2.908  0.2483E+01  0.3210E+03
      2.910  0.2489E+01  0.3210E+03
      2.911  0.2495E+01  0.3210E+03
      2.912  0.2500E+01  0.3210E+03
      2.913  0.2506E+01  0.3210E+03
      2.914  0.2512E+01  0.3210E+03
      2.916  0.2517E+01  0.3210E+03
      2.917  0.2523E+01  0.3210E+03
      2.918  0.2529E+01  0.3210E+03
      2.919  0.2534E+01  0.3210E+03
      2.920  0.2540E+01  0.3210E+03
      2.922  0.2546E+01  0.3210E+03
      2.923  0.2551E+01  0.3210E+03
      2.924  0.2557E+01  0.3210E+03
      2.925  0.2563E+01  0.3210E+03
      2.926  0.2568E+01  0.3210E+03
      2.928  0.2574E+01  0.3210E+03
      2.929  0.2579E+01  0.3210E+03
      2.930  0.2585E+01  0.3210E+03
      2.931  0.2591E+01  0.3210E+03
      2.932  0.2596E+01  0.3210E+03
      2.934  0.2602E+01  0.3210E+03
      2.935  0.2608E+01  0.3210E+03
      2.936  0.2613E+01  0.3211E+03
      2.937  0.2620E+01  0.3211E+03
      2.938  0.2629E+01  0.3211E+03
      2.940  0.2640E+01  0.3211E+03
      2.941  0.2652E+01  0.3211E+03
      2.942  0.2663E+01  0.3211E+03
      2.943  0.2674E+01  0.3211E+03
      2.944  0.2686E+01  0.3211E+03
      2.946  0.2697E+01  0.3211E+03
      2.947  0.2708E+01  0.3211E+03
      2.948  0.2719E+01  0.3211E+03
      2.949  0.2731E+01  0.3211E+03
      2.950  0.2742E+01  0.3211E+03
      2.952  0.2762E+01  0.3211E+03
      2.953  0.2977E+01  0.3211E+03
      2.954  0.3486E+01  0.3211E+03
      2.955  0.4232E+01  0.3211E+03
      2.956  0.5150E+01  0.3211E+03
      2.958  0.6115E+01  0.3211E+03
      2.959  0.7654E+01  0.3211E+03
      2.960  0.9163E+01  0.3211E+03
      2.961  0.1060E+02  0.3211E+03
      2.962  0.1205E+02  0.3212E+03
      2.964  0.1326E+02  0.3212E+03
      2.965  0.1411E+02  0.3212E+03
      2.966  0.1494E+02  0.3212E+03
      2.967  0.1572E+02  0.3212E+03
      2.968  0.1646E+02  0.3212E+03
      2.970  0.1691E+02  0.3213E+03
      2.971  0.1722E+02  0.3213E+03
      2.972  0.1778E+02  0.3213E+03
      2.973  0.1821E+02  0.3213E+03
      2.974  0.1836E+02  0.3214E+03
      2.976  0.1927E+02  0.3214E+03
      2.977  0.2032E+02  0.3214E+03
      2.978  0.2132E+02  0.3214E+03
      2.979  0.2225E+02  0.3214E+03
      2.980  0.2313E+02  0.3215E+03
      2.982  0.2401E+02  0.3215E+03
      2.983  0.2486E+02  0.3215E+03
      2.984  0.2571E+02  0.3216E+03
      2.985  0.2671E+02  0.3216E+03
      2.986  0.2764E+02  0.3216E+03
      2.988  0.2844E+02  0.3217E+03
      2.989  0.2809E+02  0.3217E+03
      2.990  0.2758E+02  0.3217E+03